FORMULA,Process Method,Measurement Method,Measuremet T (?°C),Structure: Exp Density (g/cm^3),Structure: Calculated Density (g/cm^3),Structure: Microstructure,Mechanics: Hardness (HV),Mechanics: Yield strength (MPa),Mechanics: Ultra tensle strength (MPa),Mechanics: Exp Young modulus (GPa),Mechanics: Calculated Young modulus (GPa),Mechanics: Fracture Elongation (%),Mechanics: Plastic Elongation (%),Others: DOI,Others: Reference
Hf1Mo0.5Nb1Si0.5Ti1V0.5,CAST,C,1000,8.16,8.2,BCC+Sec.,,614,,,,,,10.1016/j.actamat.2019.06.032,
Hf1Mo0.5Nb1Si0.5Ti1V0.5,CAST,C,1200,8.16,8.2,BCC+Sec.,,188,,,,,,10.1016/j.actamat.2019.06.032,
Hf1Mo0.5Nb1Si0.7Ti1V0.5,CAST,C,1000,,7.9,BCC+Sec.,,673,741,,,,,10.1016/j.jallcom.2016.10.014,
Hf1Mo0.5Nb1Si0.7Ti1V0.5,CAST,C,25,,7.9,BCC+Sec.,,2134,2242,,,,,10.1016/j.jallcom.2016.10.014,
Hf1Mo0.5Nb1Si0.7Ti1V0.5,CAST,C,1200,,7.9,BCC+Sec.,,235,268,,,,,10.1016/j.jallcom.2016.10.014,
Hf1Mo0.5Nb1Si0.7Ti1V0.5,CAST,C,23,7.89,7.9,BCC+Sec.,,2134,,,,,,10.1016/j.actamat.2019.06.032,
Hf1Mo0.5Nb1Si0.7Ti1V0.5,CAST,C,1000,7.89,7.9,BCC+Sec.,,673,,,,,,10.1016/j.actamat.2019.06.032,
Hf1Mo0.5Nb1Si0.7Ti1V0.5,CAST,C,1200,7.89,7.9,BCC+Sec.,,235,,,,,,10.1016/j.actamat.2019.06.032,
Hf1Mo0.5Nb1Ta1Ti1Zr1,CAST,C,25,,9.9,BCC,480,1317,,102,123,50,,10.1016/j.matlet.2016.03.133,
Hf1Mo0.5Nb1Ti1V0.5,CAST,C,1000,,9,BCC,,368,394,,126,,,10.1016/j.jallcom.2016.10.014,
Hf1Mo0.5Nb1Ti1V0.5,CAST,C,1200,,9,BCC,,60,,,126,,,10.1016/j.jallcom.2016.10.014,
Hf1Mo0.5Nb1Ti1V0.5,CAST,C,25,,9,BCC,,1260,,,126,,,10.1016/j.jallcom.2016.10.014,
Hf1Mo0.5Nb1Ti1V0.5,CAST,C,23,8.96,9,BCC,,1260,,,126,,,10.1016/j.actamat.2019.06.032,
Hf1Mo0.5Nb1Ti1V0.5,CAST,C,1000,8.96,9,BCC,,368,,,126,,,10.1016/j.actamat.2019.06.032,
Hf1Mo0.5Nb1Ti1V0.5,CAST,C,1200,8.96,9,BCC,,60,,,126,,,10.1016/j.actamat.2019.06.032,
Hf1Mo0.75Nb1Ta1Ti1Zr1,CAST,C,25,,9.9,BCC,492,1373,,109,130,50,,10.1016/j.matlet.2016.03.133,
Hf1Mo1Nb1Ta1Ti1,CAST,C,25,,10.8,BCC,,1369,,,155,27,,10.3390/e21010015,
Hf1Mo1Nb1Ta1Ti1,CAST,C,800,,10.8,BCC,,822,,,155,,,10.3390/e21010015,
Hf1Mo1Nb1Ta1Ti1,CAST,C,1000,,10.8,BCC,,778,,,155,,,10.3390/e21010015,
Hf1Mo1Nb1Ta1Ti1,CAST,C,1200,,10.8,BCC,,699,,,155,,,10.3390/e21010015,
Hf1Mo1Nb1Ta1Ti1,CAST,C,1400,,10.8,BCC,,367,,,155,,,10.3390/e21010015,
Hf1Mo1Nb1Ta1Ti1W1Zr1,CAST,C,25,,11.1,BCC+Laves,,1637,,,,15.5,,10.1016/j.jallcom.2019.06.138,
Hf1Mo1Nb1Ta1Ti1W1Zr1,CAST,C,800,,11.1,BCC+Laves,,1065,,,,35,,10.1016/j.jallcom.2019.06.138,
Hf1Mo1Nb1Ta1Ti1W1Zr1,CAST,C,1000,,11.1,BCC+Laves,,736,,,,35,,10.1016/j.jallcom.2019.06.138,
Hf1Mo1Nb1Ta1Ti1W1Zr1,CAST,C,1200,,11.1,BCC+Laves,,703,,,,35,,10.1016/j.jallcom.2019.06.138,
Hf1Mo1Nb1Ta1Ti1Zr1,CAST,C,25,,9.9,BCC,,1512,,,137,12,,10.3390/e21010015,
Hf1Mo1Nb1Ta1Ti1Zr1,CAST,C,800,,9.9,BCC,,1007,,,137,12,,10.3390/e21010015,
Hf1Mo1Nb1Ta1Ti1Zr1,CAST,C,1000,,9.9,BCC,,814,,,137,23,,10.3390/e21010015,
Hf1Mo1Nb1Ta1Ti1Zr1,CAST,C,1200,,9.9,BCC,,556,,,137,30,,10.3390/e21010015,
Hf1Mo1Nb1Ta1Ti1Zr1,CAST,C,25,,9.9,BCC,505,1512,1800,115,137,30,,10.1016/j.matlet.2016.03.133,
Hf1Mo1Nb1Ta1Ti1Zr1,CAST,C,25,,9.9,BCC,505,1512,,,137,,,10.1016/j.intermet.2015.03.013,
Hf1Mo1Nb1Ta1Ti1Zr1,CAST,C,800,,9.9,BCC,,1007,,,137,,,10.1016/j.intermet.2015.03.013,
Hf1Mo1Nb1Ta1Ti1Zr1,CAST,C,1000,,9.9,BCC,,814,,,137,,,10.1016/j.intermet.2015.03.013,
Hf1Mo1Nb1Ta1Ti1Zr1,CAST,C,1200,,9.9,BCC,,556,,,137,12,,10.1016/j.intermet.2015.03.013,
Hf1Mo1Nb1Ta1Ti1Zr1,CAST,C,23,9.93,9.9,BCC,,1512,,,137,,,10.1016/j.actamat.2019.06.032,
Hf1Mo1Nb1Ta1Ti1Zr1,CAST,C,1000,9.93,9.9,BCC,,814,,,137,,,10.1016/j.actamat.2019.06.032,
Hf1Mo1Nb1Ta1Ti1Zr1,CAST,C,1200,9.93,9.9,BCC,,556,,,137,,,10.1016/j.actamat.2019.06.032,
Hf1Mo1Nb1Ta1Zr1,CAST,C,25,,10.9,BCC,,1524,,,141,16,,10.3390/e21010015,
Hf1Mo1Nb1Ta1Zr1,CAST,C,800,,10.9,BCC,,1005,,,141,,,10.3390/e21010015,
Hf1Mo1Nb1Ta1Zr1,CAST,C,1000,,10.9,BCC,,927,,,141,,,10.3390/e21010015,
Hf1Mo1Nb1Ta1Zr1,CAST,C,1200,,10.9,BCC,,694,,,141,,,10.3390/e21010015,
Hf1Mo1Nb1Ta1Zr1,CAST,C,1400,,10.9,BCC,,278,,,141,,,10.3390/e21010015,
Hf1Mo1Nb1Ti1Zr1,CAST,C,25,,8.7,BCC,,1351,,,128,9,,10.3390/e21010015,
Hf1Mo1Nb1Ti1Zr1,CAST,C,800,,8.7,BCC,,829,,,128,50,,10.3390/e21010015,
Hf1Mo1Nb1Ti1Zr1,CAST,C,1000,,8.7,BCC,,721,,,128,50,,10.3390/e21010015,
Hf1Mo1Nb1Ti1Zr1,CAST,C,1200,,8.7,BCC,,301,,,128,50,,10.3390/e21010015,
Hf1Mo1Nb1Ti1Zr1,ANNEAL,C,25,,8.7,BCC,,1575,1640,,128,10,,10.1016/j.matdes.2015.05.019,
Hf1Mo1Nb1Ti1Zr1,ANNEAL,C,800,,8.7,BCC,,825,1095,,128,,,10.1016/j.matdes.2015.05.019,
Hf1Mo1Nb1Ti1Zr1,ANNEAL,C,1000,,8.7,BCC,,635,654,,128,,,10.1016/j.matdes.2015.05.019,
Hf1Mo1Nb1Ti1Zr1,ANNEAL,C,1200,,8.7,BCC,,187,194,,128,,,10.1016/j.matdes.2015.05.019,
Hf1Mo1Nb1Ti1Zr1,CAST,C,25,,8.7,BCC,,1719,1803,,128,,,10.1016/j.matdes.2015.05.019,
Hf1Mo1Nb1Ti1Zr1,CAST,C,25,8.68,8.7,BCC,,1719,,,128,20,,10.1016/j.intermet.2015.10.011,
Hf1Mo1Nb1Ti1Zr1,CAST,C,23,8.68,8.7,BCC,,1575,,,128,,,10.1016/j.actamat.2019.06.032,
Hf1Mo1Nb1Ti1Zr1,CAST,C,1000,8.68,8.7,BCC,,635,,,128,,,10.1016/j.actamat.2019.06.032,
Hf1Mo1Nb1Ti1Zr1,CAST,C,1200,8.68,8.7,BCC,,187,,,128,,,10.1016/j.actamat.2019.06.032,
Hf1Mo1Ta1Ti1Zr1,CAST,C,25,,10.2,BCC,,1600,,,143,4,,10.3390/e21010015,
Hf1Mo1Ta1Ti1Zr1,CAST,C,800,,10.2,BCC,,1045,,,143,19,,10.3390/e21010015,
Hf1Mo1Ta1Ti1Zr1,CAST,C,1000,,10.2,BCC,,855,,,143,30,,10.3390/e21010015,
Hf1Mo1Ta1Ti1Zr1,CAST,C,1200,,10.2,BCC,,404,,,143,30,,10.3390/e21010015,
Hf1Mo1Ta1Ti1Zr1,CAST,C,25,,10.2,BCC,542,1600,1743,,143,,,10.1016/j.intermet.2015.03.013,
Hf1Mo1Ta1Ti1Zr1,CAST,C,800,,10.2,BCC,,1045,1446,,143,,,10.1016/j.intermet.2015.03.013,
Hf1Mo1Ta1Ti1Zr1,CAST,C,1000,,10.2,BCC,,855,,,143,,,10.1016/j.intermet.2015.03.013,
Hf1Mo1Ta1Ti1Zr1,CAST,C,1200,,10.2,BCC,,404,,,143,4,,10.1016/j.intermet.2015.03.013,
Hf1Mo1Ta1Ti1Zr1,CAST,C,23,10.18,10.2,BCC,,1600,,,143,,,10.1016/j.actamat.2019.06.032,
Hf1Mo1Ta1Ti1Zr1,CAST,C,1000,10.18,10.2,BCC,,855,,,143,,,10.1016/j.actamat.2019.06.032,
Hf1Mo1Ta1Ti1Zr1,CAST,C,1200,10.18,10.2,BCC,,404,,,143,,,10.1016/j.actamat.2019.06.032,
Hf1Nb1Si0.5Ti1V1,CAST,C,800,,7.8,BCC+Sec.,,875,,,,50,,10.1016/j.matlet.2016.03.092,
Hf1Nb1Si0.5Ti1V1,CAST,C,1000,,7.8,BCC+Sec.,,240,,,,50,,10.1016/j.matlet.2016.03.092,
Hf1Nb1Si0.5Ti1V1,CAST,C,25,,7.8,BCC+Sec.,490,1399,1608,,,11,,10.1016/j.matlet.2016.03.092,
Hf1Nb1Si0.5Ti1V1Zr1,ANNEAL,C,400,,7.5,BCC+Laves+Sec.,,1273,1335,,,14.5,,10.4028/www.scientific.net/MSF.849.76,
Hf1Nb1Si0.5Ti1V1Zr1,ANNEAL,C,600,,7.5,BCC+Laves+Sec.,,597,651,,,50,,10.4028/www.scientific.net/MSF.849.76,
Hf1Nb1Si0.5Ti1V1Zr1,ANNEAL,C,800,,7.5,BCC+Laves+Sec.,,102,107,,,50,,10.4028/www.scientific.net/MSF.849.76,
Hf1Nb1Si0.5Ti1V1Zr1,ANNEAL,C,25,,7.5,BCC+Laves+Sec.,,1483,1611,,,9.5,,10.4028/www.scientific.net/MSF.849.76,
Hf1Nb1Si0.5Ti1V1Zr1,CAST,C,600,,7.5,BCC+Laves+Sec.,,920,1252,,,50,,10.4028/www.scientific.net/MSF.849.76,
Hf1Nb1Si0.5Ti1V1Zr1,CAST,C,800,,7.5,BCC+Laves+Sec.,,371,427,,,50,,10.4028/www.scientific.net/MSF.849.76,
Hf1Nb1Si0.5Ti1V1Zr1,CAST,C,25,,7.5,BCC+Laves+Sec.,,1540,1643,,,16.8,,10.4028/www.scientific.net/MSF.849.76,
Hf1Nb1Ta1Ti1,ANNEAL,,,,10.9,BCC,280,,,,119,,,10.1016/j.matdes.2018.06.003,
Hf1Nb1Ta1Ti1,CAST,,,,10.9,BCC,270,,,,119,,,10.1016/j.matdes.2018.06.003,
Hf1Nb1Ta1Ti1,ANNEAL,C,20,,10.9,BCC,,860,,,119,,,10.1016/j.actamat.2019.06.006,
Hf1Nb1Ta1Ti1,ANNEAL,C,20,,10.9,BCC,,834,,,119,,,10.1016/j.actamat.2019.06.006,
Hf1Nb1Ta1Ti1,ANNEAL,C,200,,10.9,BCC,,610,,,119,,,10.1016/j.actamat.2019.06.006,
Hf1Nb1Ta1Ti1,ANNEAL,C,600,,10.9,BCC,,473,,,119,,,10.1016/j.actamat.2019.06.006,
Hf1Nb1Ta1Ti1W1Zr1,CAST,C,25,,11.2,BCC+Laves,,1550,,,,26.3,,10.1016/j.jallcom.2019.06.138,
Hf1Nb1Ta1Ti1W1Zr1,CAST,C,800,,11.2,BCC+Laves,,577,,,,35,,10.1016/j.jallcom.2019.06.138,
Hf1Nb1Ta1Ti1W1Zr1,CAST,C,1000,,11.2,BCC+Laves,,409,,,,35,,10.1016/j.jallcom.2019.06.138,
Hf1Nb1Ta1Ti1W1Zr1,CAST,C,1200,,11.2,BCC+Laves,,345,,,,35,,10.1016/j.jallcom.2019.06.138,
Hf1Nb1Ta1Ti1Zr1,CAST,T,25,,9.9,BCC,359,1155,1212,59,107,50,,10.3390/e21020114,
Hf1Nb1Ta1Ti1Zr1,CAST,T,25,,9.9,BCC,,828,862,,107,50,,10.1016/j.msea.2015.12.017,
Hf1Nb1Ta1Ti1Zr1,CAST,T,25,,9.9,BCC,,827,856,,107,50,,10.1016/j.msea.2015.12.017,
Hf1Nb1Ta1Ti1Zr1,CAST,T,25,,9.9,BCC,,820,869,,107,50,,10.1016/j.msea.2015.12.017,
Hf1Nb1Ta1Ti1Zr1,CAST,T,25,,9.9,BCC,,803,810,,107,50,,10.1016/j.msea.2015.12.017,
Hf1Nb1Ta1Ti1Zr1,CAST,C,25,,9.9,BCC,,905,,,107,50,,10.1016/j.msea.2015.08.024,
Hf1Nb1Ta1Ti1Zr1,WROUGHT,T,25,,9.9,BCC,,958,974,,107,50,,10.1016/j.matlet.2016.08.060,
Hf1Nb1Ta1Ti1Zr1,WROUGHT,T,25,,9.9,BCC,,944,959,,107,50,,10.1016/j.matlet.2016.08.060,
Hf1Nb1Ta1Ti1Zr1,WROUGHT,T,25,,9.9,BCC,,940,953,,107,7.9,,10.1016/j.matlet.2016.08.060,
Hf1Nb1Ta1Ti1Zr1,CAST,C,25,,9.9,BCC,335,1015,,85,,1.7,,10.1016/j.matlet.2016.03.133,
Hf1Nb1Ta1Ti1Zr1,WROUGHT,,,,9.9,BCC,,,,,,5,,10.1016/j.matchar.2018.07.015,
Hf1Nb1Ta1Ti1Zr1,CAST,C,25,,9.9,BCC,,890,,,107,9.2,,10.1016/j.matchar.2015.11.018,
Hf1Nb1Ta1Ti1Zr1,WROUGHT,,20,,9.9,BCC,,,,88.9,107,4.7,,10.1016/j.jallcom.2019.05.322,
Hf1Nb1Ta1Ti1Zr1,WROUGHT,,40,,9.9,BCC,,,,88.6,,,,10.1016/j.jallcom.2019.05.322,
Hf1Nb1Ta1Ti1Zr1,WROUGHT,,60,,9.9,BCC,,,,88.4,107,9.7,,10.1016/j.jallcom.2019.05.322,
Hf1Nb1Ta1Ti1Zr1,WROUGHT,,80,,9.9,BCC,,,,88.1,107,,,10.1016/j.jallcom.2019.05.322,
Hf1Nb1Ta1Ti1Zr1,WROUGHT,,100,,9.9,BCC,,,,87.9,107,,,10.1016/j.jallcom.2019.05.322,
Hf1Nb1Ta1Ti1Zr1,WROUGHT,,120,,9.9,BCC,,,,87.7,107,,,10.1016/j.jallcom.2019.05.322,
Hf1Nb1Ta1Ti1Zr1,WROUGHT,,140,,9.9,BCC,,,,87.5,107,,,10.1016/j.jallcom.2019.05.322,
Hf1Nb1Ta1Ti1Zr1,WROUGHT,,160,,9.9,BCC,,,,87.3,107,,,10.1016/j.jallcom.2019.05.322,
Hf1Nb1Ta1Ti1Zr1,WROUGHT,,180,,9.9,BCC,,,,87.1,107,,,10.1016/j.jallcom.2019.05.322,
Hf1Nb1Ta1Ti1Zr1,WROUGHT,,200,,9.9,BCC,,,,86.9,107,,,10.1016/j.jallcom.2019.05.322,
Hf1Nb1Ta1Ti1Zr1,WROUGHT,,220,,9.9,BCC,,,,86.7,107,,,10.1016/j.jallcom.2019.05.322,
Hf1Nb1Ta1Ti1Zr1,WROUGHT,,240,,9.9,BCC,,,,86.5,107,,,10.1016/j.jallcom.2019.05.322,
Hf1Nb1Ta1Ti1Zr1,WROUGHT,,260,,9.9,BCC,,,,86.3,107,,,10.1016/j.jallcom.2019.05.322,
Hf1Nb1Ta1Ti1Zr1,WROUGHT,,280,,9.9,BCC,,,,86.1,107,,,10.1016/j.jallcom.2019.05.322,
Hf1Nb1Ta1Ti1Zr1,WROUGHT,,300,,9.9,BCC,,,,85.8,107,,,10.1016/j.jallcom.2019.05.322,
Hf1Nb1Ta1Ti1Zr1,WROUGHT,,320,,9.9,BCC,,,,85.5,107,,,10.1016/j.jallcom.2019.05.322,
Hf1Nb1Ta1Ti1Zr1,WROUGHT,,340,,9.9,BCC,,,,85.2,107,,,10.1016/j.jallcom.2019.05.322,
Hf1Nb1Ta1Ti1Zr1,WROUGHT,,360,,9.9,BCC,,,,84.9,107,15.7,,10.1016/j.jallcom.2019.05.322,
Hf1Nb1Ta1Ti1Zr1,WROUGHT,,380,,9.9,BCC,,,,84.5,107,12.6,,10.1016/j.jallcom.2019.05.322,
Hf1Nb1Ta1Ti1Zr1,WROUGHT,,400,,9.9,BCC,,,,84.2,107,10.8,,10.1016/j.jallcom.2019.05.322,
Hf1Nb1Ta1Ti1Zr1,WROUGHT,,420,,9.9,BCC,,,,83.8,107,,,10.1016/j.jallcom.2019.05.322,
Hf1Nb1Ta1Ti1Zr1,WROUGHT,,440,,9.9,BCC,,,,83.5,107,,,10.1016/j.jallcom.2019.05.322,
Hf1Nb1Ta1Ti1Zr1,WROUGHT,,460,,9.9,BCC,,,,83.1,107,,,10.1016/j.jallcom.2019.05.322,
Hf1Nb1Ta1Ti1Zr1,WROUGHT,,480,,9.9,BCC,,,,82.7,107,,,10.1016/j.jallcom.2019.05.322,
Hf1Nb1Ta1Ti1Zr1,WROUGHT,,500,,9.9,BCC,,,,82.3,107,,,10.1016/j.jallcom.2019.05.322,
Hf1Nb1Ta1Ti1Zr1,WROUGHT,,520,,9.9,BCC,,,,81.9,107,,,10.1016/j.jallcom.2019.05.322,
Hf1Nb1Ta1Ti1Zr1,WROUGHT,,540,,9.9,BCC,,,,81.6,107,,,10.1016/j.jallcom.2019.05.322,
Hf1Nb1Ta1Ti1Zr1,WROUGHT,,560,,9.9,BCC,,,,81.3,107,,,10.1016/j.jallcom.2019.05.322,
Hf1Nb1Ta1Ti1Zr1,WROUGHT,,580,,9.9,BCC,,,,81,107,,,10.1016/j.jallcom.2019.05.322,
Hf1Nb1Ta1Ti1Zr1,WROUGHT,,600,,9.9,BCC,,,,80.7,107,,,10.1016/j.jallcom.2019.05.322,
Hf1Nb1Ta1Ti1Zr1,WROUGHT,,620,,9.9,BCC,,,,80.4,107,,,10.1016/j.jallcom.2019.05.322,
Hf1Nb1Ta1Ti1Zr1,WROUGHT,,640,,9.9,BCC,,,,80.2,107,,,10.1016/j.jallcom.2019.05.322,
Hf1Nb1Ta1Ti1Zr1,WROUGHT,,660,,9.9,BCC,,,,80,107,,,10.1016/j.jallcom.2019.05.322,
Hf1Nb1Ta1Ti1Zr1,WROUGHT,,680,,9.9,BCC,,,,79.8,107,,,10.1016/j.jallcom.2019.05.322,
Hf1Nb1Ta1Ti1Zr1,WROUGHT,,700,,9.9,BCC,,,,79.6,107,,,10.1016/j.jallcom.2019.05.322,
Hf1Nb1Ta1Ti1Zr1,WROUGHT,,720,,9.9,BCC,,,,79.3,107,,,10.1016/j.jallcom.2019.05.322,
Hf1Nb1Ta1Ti1Zr1,WROUGHT,,740,,9.9,BCC,,,,79,107,,,10.1016/j.jallcom.2019.05.322,
Hf1Nb1Ta1Ti1Zr1,WROUGHT,,760,,9.9,BCC,,,,78.7,107,,,10.1016/j.jallcom.2019.05.322,
Hf1Nb1Ta1Ti1Zr1,WROUGHT,,780,,9.9,BCC,,,,78.4,107,,,10.1016/j.jallcom.2019.05.322,
Hf1Nb1Ta1Ti1Zr1,WROUGHT,,800,,9.9,BCC,,,,78.1,107,,,10.1016/j.jallcom.2019.05.322,
Hf1Nb1Ta1Ti1Zr1,WROUGHT,,820,,9.9,BCC,,,,77.7,107,,,10.1016/j.jallcom.2019.05.322,
Hf1Nb1Ta1Ti1Zr1,WROUGHT,,840,,9.9,BCC,,,,77.4,107,,,10.1016/j.jallcom.2019.05.322,
Hf1Nb1Ta1Ti1Zr1,WROUGHT,T,25,,9.9,BCC,,985,1004,,107,,,10.1016/j.jallcom.2019.04.291,
Hf1Nb1Ta1Ti1Zr1,WROUGHT,T,25,,9.9,BCC,,972,1000,,107,,,10.1016/j.jallcom.2019.04.291,
Hf1Nb1Ta1Ti1Zr1,WROUGHT,T,25,,9.9,BCC,,967,981,,107,,,10.1016/j.jallcom.2019.04.291,
Hf1Nb1Ta1Ti1Zr1,WROUGHT,T,25,,9.9,BCC,366,1202,1295,,107,,,10.1016/j.jallcom.2015.07.209,
Hf1Nb1Ta1Ti1Zr1,WROUGHT,T,25,,9.9,BCC+BCC,,1303,1334,,107,,,10.1016/j.jallcom.2015.07.209,
Hf1Nb1Ta1Ti1Zr1,WROUGHT,T,25,,9.9,BCC,351,1145,1262,,107,,,10.1016/j.jallcom.2015.07.209,
Hf1Nb1Ta1Ti1Zr1,CAST,C,25,,9.9,BCC,295,1073,,55,107,,,10.1016/j.jallcom.2014.11.064,
Hf1Nb1Ta1Ti1Zr1,WROUGHT,T,25,,9.9,BCC,,940,1080,,107,,,10.1016/j.actamat.2017.09.062,
Hf1Nb1Ta1Ti1Zr1,WROUGHT,T,25,,9.9,BCC,309,830,840,,107,,,10.1016/j.actamat.2017.09.035,
Hf1Nb1Ta1Zr1,ANNEAL,C,25,,11.1,BCC+HCP,571,2310,,,,0.3,,10.1016/j.actamat.2016.01.018,
Hf1Nb1Ta1Zr1,ANNEAL,C,25,,11.1,BCC+HCP,536,2100,2200,,,3.5,,10.1016/j.actamat.2016.01.018,
Hf1Nb1Ta1Zr1,ANNEAL,C,25,,11.1,BCC+HCP,,2020,2030,,,1.7,,10.1016/j.actamat.2016.01.018,
Hf1Nb1Ta1Zr1,ANNEAL,C,25,,11.1,BCC+HCP,550,1950,2010,,,2.2,,10.1016/j.actamat.2016.01.018,
Hf1Nb1Ta1Zr1,CAST,C,25,,11.1,BCC,365,1315,1800,,105,21.6,,10.1016/j.actamat.2016.01.018,
Hf1Nb1Ti1V1Zr1,ANNEAL,C,25,,8.1,BCC+Laves,,1157,1468,,,,,10.1016/j.ijrmhm.2014.07.009,
Hf1Nb1Ti1V1Zr1,ANNEAL,C,25,,8.1,BCC,,1253,1393,,95,,,10.1016/j.ijrmhm.2014.07.009,
Hf1Nb1Ti1V1Zr1,ANNEAL,C,25,,8.1,BCC,,1140,1463,,95,,,10.1016/j.ijrmhm.2014.07.009,
Hf1Nb1Ti1V1Zr1,ANNEAL,C,25,,8.1,BCC,,1120,1376,,95,30,,10.1016/j.ijrmhm.2014.07.009,
Hf1Nb1Ti1V1Zr1,CAST,C,25,,8.1,BCC+Laves,,1170,1463,,,29.6,,10.1016/j.ijrmhm.2014.07.009,
Hf1Nb1Ti1Zr1,CAST,T,25,,8.4,BCC,,879,969,,89,,14.9,10.1016/j.matlet.2014.05.134,
Hf1Nb1Ti1Zr1,WROUGHT,,,,8.4,BCC,,,,69.7,89,,,10.1016/j.intermet.2019.04.003,
Hf1Nb1Ti1Zr1,CAST,C,25,,8.4,BCC,351,1000,,,89,52,,10.1007/s12598-019-01310-6,
Hf1Nb1Ti1Zr1,ANNEAL,,,,8.4,BCC,,,,,89,,,10.1007/s12598-019-01310-6,
Hf1Nb1Ti1Zr1,CAST,C,800,,8.4,BCC,,303,,,89,51,,10.1007/s12598-019-01310-6,
Hf1Nb1Ti1Zr1,CAST,C,1000,,8.4,BCC,,154,,,89,51,,10.1007/s12598-019-01310-6,
Hf1Sc1Ti1Y1Zr1,CAST,C,25,,6.2,Other,256,793,,,,15.7,,10.1007/s00339-019-2484-1,
Hf1Sc1Ti1Zr1,CAST,C,25,,6.8,Other,233,1001,,,,21.9,,10.1007/s00339-019-2484-1,
Hf1Ta0.4Ti1Zr1,CAST,T,25,,9.2,BCC+HCP,,400,1100,,,,,10.1002/adma.201701678,
Hf1Ta0.5Ti1Zr1,CAST,T,25,,9.4,BCC+HCP,,700,1100,,,,,10.1002/adma.201701678,
Hf1Ta0.6Ti1Zr1,CAST,T,25,,9.6,BCC+HCP,,800,1100,,,,,10.1002/adma.201701678,
Hf1Ta1Ti1Zr1,CAST,T,25,,10.2,BCC,,1500,1500,,107,,,10.1002/adma.201701678,
Hf1Ti1Y1Zr1,CAST,C,25,,7,Other,241,554,,,,17.7,,10.1007/s00339-019-2484-1,
Hf1Ti1Zr1,CAST,C,25,,8.3,Other,211,773,,,,17,,10.1007/s00339-019-2484-1,
Hf1Mo0.25Nb1Ta1Ti1Zr1,,C,25,9.9,9.906161127,BCC,395,1112,,121,115.2945674,50,,https://doi.org/10.1016/j.dib.2018.11.111,Data in Brief 21 (2018) 2664¡V2678
Hf1Mo0.25Nb1Ta1Ti1Zr1,CAST,C,25,9.94,9.906161127,BCC,,1110,,96,115.2945674,50,50,,Prof.Yeh-RHEA
Hf1Mo0.5Nb1Si0.3Ti1V0.5,CAST,C,25,8.75,8.466583224,BCC+Sec.,,1620,,,119.575457,18.5,12.5,,Prof.Yeh-RHEA
Hf1Mo0.5Nb1Si0.5Ti1V0.5,CAST,C,25,8.6,8.169248443,BCC+Sec.,,1790,,,116.0596505,11.9,5.2,,Prof.Yeh-RHEA
Hf1Mo0.5Nb1Si0.7Ti1V0.5,CAST,C,25,8.49,7.899390445,BCC+Sec.,,2130,,,112.8687407,9.2,0.8,,Prof.Yeh-RHEA
Hf1Mo0.5Nb1Ta1Ti1Zr1,,C,25,9.9,9.917872809,BCC,480,1317,,130,123.0677835,50,,https://doi.org/10.1016/j.dib.2018.11.111,Data in Brief 21 (2018) 2664¡V2678
Hf1Mo0.5Nb1Ta1Ti1Zr1,CAST,C,25,9.96,9.917872809,BCC,,1320,,102,123.0677835,50,50,,Prof.Yeh-RHEA
Hf1Mo0.5Nb1Ti1V0.5,CAST,C,25,9.02,8.97404319,BCC,,1260,,,125.5758684,35,35,,Prof.Yeh-RHEA
Hf1Mo0.75Nb1Ta1Ti1Zr1,,C,25,9.9,9.928762404,BCC,492,1373,,139,130.2953678,50,,https://doi.org/10.1016/j.dib.2018.11.111,Data in Brief 21 (2018) 2664¡V2678
Hf1Mo0.75Nb1Ta1Ti1Zr1,CAST,C,25,9.97,9.928762404,BCC,,1370,,109,130.2953678,50,50,,Prof.Yeh-RHEA
Hf1Mo1Nb1Ta1Ti1Zr1,CAST,C,25,9.97,9.938913534,BCC,,1512,,115,137.0328224,12,10,,Prof.Yeh-RHEA
Hf1Mo1Nb1Ta1Ti1W1Zr1,CAST,C,25,11.06,11.07993463,BCC,,1637,,,170.0287422,15.5,13,,Prof.Yeh-RHEA
Hf1Mo1Nb1Ta1Ti1Zr1,,,25,9.95,9.938913534,BCC,,1512,,,137.0328224,12,,https://doi.org/10.1016/j.dib.2018.11.111,Data in Brief 21 (2018) 2664¡V2678
Hf1Mo1Nb1Ta1Ti1Zr1,,,800,9.95,9.938913534,BCC,,1007,,,137.0328224,23,,https://doi.org/10.1016/j.dib.2018.11.111,Data in Brief 21 (2018) 2664¡V2678
Hf1Mo1Nb1Ta1Ti1Zr1,,,1000,9.95,9.938913534,BCC,,814,,,137.0328224,30,,https://doi.org/10.1016/j.dib.2018.11.111,Data in Brief 21 (2018) 2664¡V2678
Hf1Mo1Nb1Ta1Ti1Zr1,,,1200,9.95,9.938913534,BCC,,556,,,137.0328224,30,,https://doi.org/10.1016/j.dib.2018.11.111,Data in Brief 21 (2018) 2664¡V2678
Hf1Mo1Nb1Ta1Ti1Zr1,,C,25,10,9.938913534,BCC,505,1512,,,137.0328224,12,,https://doi.org/10.1016/j.dib.2018.11.111,Data in Brief 21 (2018) 2664¡V2678
Hf1Mo1Nb1Ta1Ti1Zr1,,C,25,9.9,9.938913534,BCC,505,1512,,147,137.0328224,12,,https://doi.org/10.1016/j.dib.2018.11.111,Data in Brief 21 (2018) 2664¡V2678
Hf1Mo1Nb1Ti1Zr1,,,25,8.7,8.685086263,BCC,,1575,,,127.9212828,9,,https://doi.org/10.1016/j.dib.2018.11.111,Data in Brief 21 (2018) 2664¡V2678
Hf1Mo1Nb1Ti1Zr1,,,800,8.7,8.685086263,BCC,,825,,,127.9212828,50,,https://doi.org/10.1016/j.dib.2018.11.111,Data in Brief 21 (2018) 2664¡V2678
Hf1Mo1Nb1Ti1Zr1,,,1000,8.7,8.685086263,BCC,,635,,,127.9212828,50,,https://doi.org/10.1016/j.dib.2018.11.111,Data in Brief 21 (2018) 2664¡V2678
Hf1Mo1Nb1Ti1Zr1,,,1200,8.7,8.685086263,BCC,,187,,,127.9212828,50,,https://doi.org/10.1016/j.dib.2018.11.111,Data in Brief 21 (2018) 2664¡V2678
Hf1Mo1Nb1Zr1Ti1,,C,25,8.7,8.685086263,BCC,,1803,1719,,127.9212828,10,,https://doi.org/10.1016/j.dib.2018.11.111,Data in Brief 21 (2018) 2664¡V2678
Hf1Mo1Ta1Ti1Zr1,,,25,10.21,10.19147746,BCC,,1600,,,142.9802846,4,,https://doi.org/10.1016/j.dib.2018.11.111,Data in Brief 21 (2018) 2664¡V2678
Hf1Mo1Ta1Ti1Zr1,,,800,10.21,10.19147746,BCC,,1045,,,142.9802846,19,,https://doi.org/10.1016/j.dib.2018.11.111,Data in Brief 21 (2018) 2664¡V2678
Hf1Mo1Ta1Ti1Zr1,,,1000,10.21,10.19147746,BCC,,855,,,142.9802846,30,,https://doi.org/10.1016/j.dib.2018.11.111,Data in Brief 21 (2018) 2664¡V2678
Hf1Mo1Ta1Ti1Zr1,,,1200,10.21,10.19147746,BCC,,404,,,142.9802846,30,,https://doi.org/10.1016/j.dib.2018.11.111,Data in Brief 21 (2018) 2664¡V2678
Hf1Mo1Ta1Ti1Zr1,,C,25,10.2,10.19147746,BCC,542,1600,,,142.9802846,4,,https://doi.org/10.1016/j.dib.2018.11.111,Data in Brief 21 (2018) 2664¡V2678
Hf1Nb0.5Ta0.5Ti1Zr1O0.1,CAST,C,25,9.29,9.000474978,BCC,,1100,,,,50,50,,Prof.Yeh-RHEA
Hf1Nb0.5Ta0.5Ti1Zr1O0.05,CAST,C,25,9.29,9.141264456,BCC,,955,,,,50,50,,Prof.Yeh-RHEA
Hf1Nb0.5Ta0.5Ti1Zr1O0.2,CAST,C,25,9.29,8.73288579,BCC,,1390,,,,8.2,5,,Prof.Yeh-RHEA
Hf1Nb1Si0.5Ti1V1,,,25,7.8,7.800398498,BCC+Sec.,,1399,,,96.79415347,11,,https://doi.org/10.1016/j.dib.2018.11.111,Data in Brief 21 (2018) 2664¡V2678
Hf1Nb1Si0.5Ti1V1,,,800,7.8,7.800398498,BCC+Sec.,,875,,,96.79415347,50,,https://doi.org/10.1016/j.dib.2018.11.111,Data in Brief 21 (2018) 2664¡V2678
Hf1Nb1Si0.5Ti1V1,,,1000,7.8,7.800398498,BCC+Sec.,,240,,,96.79415347,50,,https://doi.org/10.1016/j.dib.2018.11.111,Data in Brief 21 (2018) 2664¡V2678
Hf1Nb1Si0.5Ti1V1,,C,25,7.8,7.800398498,BCC+Sec.,490,1399,1608,,96.79415347,11,,https://doi.org/10.1016/j.dib.2018.11.111,Data in Brief 21 (2018) 2664¡V2678
Hf1Nb1Si0.5Ti1V1,CAST,C,25,8.6,7.800398498,BCC+Sec.,,1400,1608,,96.79415347,10.9,4,,Prof.Yeh-RHEA
Hf1Nb1Si0.5Ti1V1Zr1,,,0,7.5,7.513774178,BCC+Sec.,,1540,,,90.41466498,17,,https://doi.org/10.1016/j.dib.2018.11.111,Data in Brief 21 (2018) 2664¡V2678
Hf1Nb1Si0.5Ti1V1Zr1,,,600,7.5,7.513774178,BCC+Sec.,,1252,,,90.41466498,50,,https://doi.org/10.1016/j.dib.2018.11.111,Data in Brief 21 (2018) 2664¡V2678
Hf1Nb1Si0.5Ti1V1Zr1,,,800,7.5,7.513774178,BCC+Sec.,,427,,,90.41466498,50,,https://doi.org/10.1016/j.dib.2018.11.111,Data in Brief 21 (2018) 2664¡V2678