FORMULA,Process Method,Measurement Method,Measuremet T (?°C),Structure: Exp Density (g/cm^3),Structure: Calculated Density (g/cm^3),Structure: Microstructure,Mechanics: Hardness (HV),Mechanics: Yield strength (MPa),Mechanics: Ultra tensle strength (MPa),Mechanics: Exp Young modulus (GPa),Mechanics: Calculated Young modulus (GPa),Mechanics: Fracture Elongation (%),Mechanics: Plastic Elongation (%),Others: DOI,Others: Reference
Nb1Ta0.667Ti0.667Zr0.333,CAST,T,25,,9.2,BCC+Sec.,294,822,852,127,,0.33,,10.3390/e21020114,
Nb1Ta1Ti1,CAST,T,25,,10,BCC,246,620,683,143,136,,,10.3390/e21020114,
Nb1Ta1Ti1,WROUGHT,C,20,,10,BCC,,573,,,136,,,10.1016/j.actamat.2019.06.006,
Nb1Ta1Ti1,WROUGHT,C,100,,10,BCC,,486,,,136,,,10.1016/j.actamat.2019.06.006,
Nb1Ta1Ti1,WROUGHT,C,200,,10,BCC,,378,,,136,,,10.1016/j.actamat.2019.06.006,
Nb1Ta1Ti1,WROUGHT,C,300,,10,BCC,,314,,,136,,,10.1016/j.actamat.2019.06.006,
Nb1Ta1Ti1,WROUGHT,C,400,,10,BCC,,232,,,136,,,10.1016/j.actamat.2019.06.006,
Nb1Ta1Ti1,WROUGHT,C,600,,10,BCC,,222,,,136,,,10.1016/j.actamat.2019.06.006,
Nb1Ta1Ti1,WROUGHT,C,800,,10,BCC,,210,,,136,,,10.1016/j.actamat.2019.06.006,
Nb1Ta1Ti1,WROUGHT,C,1000,,10,BCC,,160,,,136,18.5,,10.1016/j.actamat.2019.06.006,
Nb1Ta1Ti1V1,CAST,C,25,,9.2,BCC,,1092,,,134,,,10.1016/j.proeng.2012.03.043,
Nb1Ta1Ti1V1,CAST,C,25,,9.2,BCC,,965,,,134,,,10.1016/j.msea.2016.07.102,
Nb1Ta1Ti1V1,POWDER,C,25,,9.2,BCC,427.9,1108,,,134,28.3,,10.1016/j.jallcom.2018.10.230,
Nb1Ta1Ti1V1,POWDER,C,25,,9.2,BCC,444.3,1308,,,134,27.9,,10.1016/j.jallcom.2018.10.230,
Nb1Ta1Ti1V1,POWDER,C,25,,9.2,BCC,510.9,1373,,,134,29.5,,10.1016/j.jallcom.2018.10.230,
Nb1Ta1Ti1V1W1,CAST,C,25,,11.1,BCC,,1420,1800,,187,20,,10.1016/j.msea.2016.07.102,
Nb1Ta1Ti1W1,ANNEAL,C,20,,12.1,BCC,,1054,,,198,,,10.1016/j.actamat.2019.06.006,
Nb1Ta1Ti1W1,ANNEAL,C,100,,12.1,BCC,,968,,,198,,,10.1016/j.actamat.2019.06.006,
Nb1Ta1Ti1W1,ANNEAL,C,200,,12.1,BCC,,869,,,198,,,10.1016/j.actamat.2019.06.006,
Nb1Ta1Ti1W1,ANNEAL,C,300,,12.1,BCC,,754,,,198,,,10.1016/j.actamat.2019.06.006,
Nb1Ta1Ti1W1,ANNEAL,C,400,,12.1,BCC,,627,,,198,,,10.1016/j.actamat.2019.06.006,
Nb1Ta1Ti1W1,ANNEAL,C,600,,12.1,BCC,,596,,,198,,,10.1016/j.actamat.2019.06.006,
Nb1Ta1Ti1W1,ANNEAL,C,800,,12.1,BCC,,564,,,198,,,10.1016/j.actamat.2019.06.006,
Nb1Ta1Ti1W1,ANNEAL,C,1000,,12.1,BCC,,459,,,198,,,10.1016/j.actamat.2019.06.006,
Nb1Ta1Ti1Zr1,CAST,T,25,,8.9,BCC,358,1144,1205,98,115,6.4,,10.3390/e21020114,
Nb1Ta1V1W1,CAST,C,25,,12.9,BCC,,1530,1700,,206,12,,10.1016/j.msea.2016.07.102,
Nb1Ti1V0.3Zr1,ANNEAL,C,25,,6.5,BCC,,866,,,96,,45,10.1016/j.matdes.2015.06.072,
Nb1Ti1V1Zr1,ANNEAL,C,25,,6.5,BCC,,1104,,,100,,50,10.1016/j.matdes.2015.06.072,
Nb1Ti1V1Zr1,,C,25,6.52,6.5,,335,1105,,,,50,,10.1016/j.actamat.2012.11.032,
Nb1Ti1Zr1,CAST,T,25,,6.5,BCC,295,956,991,88,94,,,10.3390/e21020114,
Nb1Ti1Zr1,CAST,C,25,,6.5,BCC,372,1223,,,94,,,10.1007/s12598-019-01310-6,
Nb1Ti1Zr1,ANNEAL,,,,6.5,BCC,,,,,94,51,,10.1007/s12598-019-01310-6,
Nb1Ti1Zr1,CAST,C,800,,6.5,BCC,,462,,,94,51,,10.1007/s12598-019-01310-6,
Nb1Ti1Zr1,CAST,C,1000,,6.5,BCC,,218,,,94,14.2,,10.1007/s12598-019-01310-6,
Nb1Ta1Ti1V1,,C,25,9.2,9.169851378,BCC,,1092,,134,134.2138287,,,https://doi.org/10.1016/j.dib.2018.11.111,Data in Brief 21 (2018) 2664¡V2678
Nb1Ta1Ti1V1,CAST,C,25,9.175,9.169851378,BCC,,1090,,106,134.2138287,50,50,,Prof.Yeh-RHEA
Nb1Ta1Ti1V1W1,,C,25,11.1,11.10562283,BCC+HCP,447,1420,,,186.5220515,20,,https://doi.org/10.1016/j.dib.2018.11.111,Data in Brief 21 (2018) 2664¡V2678
Nb1Ta1Ti1V1W1,CAST,C,25,11,11.10562283,BCC,,1420,,,186.5220515,20,16,,Prof.Yeh-RHEA
Nb1Ta1V1W1,,C,25,12.9,12.88664201,BCC,492,1530,,,205.5328097,12,,https://doi.org/10.1016/j.dib.2018.11.111,Data in Brief 21 (2018) 2664¡V2678
Nb1Ta1V1W1,CAST,C,25,12.6,12.88664201,BCC,,1530,,,205.5328097,12,12,,Prof.Yeh-RHEA
Nb1Ti1V0.3Mo1,,C,25,7.3,7.557003239,BCC,,1455,,,173.2411084,25,,https://doi.org/10.1016/j.dib.2018.11.111,Data in Brief 21 (2018) 2664¡V2678
Nb1Ti1V0.3Mo1,CAST,C,25,7.3,7.557003239,BCC,,1455,,,173.2411084,25,25,,Prof.Yeh-RHEA
Nb1Ti1V0.3Mo0.1,,C,25,6.6,6.651535095,BCC,,932,,,120.4416961,45,,https://doi.org/10.1016/j.dib.2018.11.111,Data in Brief 21 (2018) 2664¡V2678
Nb1Ti1V0.3Mo0.1,CAST,C,25,6.6,6.651535095,BCC,,932,,,120.4416961,45,45,,Prof.Yeh-RHEA
Nb1Ti1V0.3Mo0.3,,C,25,6.8,6.902084765,BCC,,1312,,,135.0516804,50,,https://doi.org/10.1016/j.dib.2018.11.111,Data in Brief 21 (2018) 2664¡V2678
Nb1Ti1V0.3Mo0.3,CAST,C,25,6.8,6.902084765,BCC,,1312,,,135.0516804,50,50,,Prof.Yeh-RHEA
Nb1Ti1V0.3Mo0.5,,C,25,6.9,7.119829355,BCC,,1301,,,147.7487437,43,,https://doi.org/10.1016/j.dib.2018.11.111,Data in Brief 21 (2018) 2664¡V2678
Nb1Ti1V0.3Mo0.5,CAST,C,25,6.9,7.119829355,BCC,,1301,,,147.7487437,43,43,,Prof.Yeh-RHEA
Nb1Ti1V0.3Mo0.7,,C,25,7.1,7.310815865,BCC,,1436,,,158.8854972,27,,https://doi.org/10.1016/j.dib.2018.11.111,Data in Brief 21 (2018) 2664¡V2678
Nb1Ti1V0.3Mo0.7,CAST,C,25,7.1,7.310815865,BCC,,1436,,,158.8854972,27,27,,Prof.Yeh-RHEA
Nb1Ti1V0.3Mo1.3,,C,25,7.4,7.764873617,BCC,,1603,,,185.3623894,20,,https://doi.org/10.1016/j.dib.2018.11.111,Data in Brief 21 (2018) 2664¡V2678
Nb1Ti1V0.3Mo1.3,CAST,C,25,7.4,7.764873617,BCC,,1603,,,185.3623894,20,20,,Prof.Yeh-RHEA
Nb1Ti1V0.3Mo1.5,,C,25,7.5,7.886366337,BCC,,1576,,,192.4468398,8,,https://doi.org/10.1016/j.dib.2018.11.111,Data in Brief 21 (2018) 2664¡V2678
Nb1Ti1V0.3Mo1.5,CAST,C,25,7.5,7.886366337,BCC,,1576,,,192.4468398,8,8,,Prof.Yeh-RHEA
Nb1Ti1V0.3Zr1,,C,25,6.5,6.509762281,BCC,,866,,,95.93634497,45,,https://doi.org/10.1016/j.dib.2018.11.111,Data in Brief 21 (2018) 2664¡V2678
Nb1Ti1V0.3Zr1,CAST,C,25,6.5,6.509762281,BCC,,866,,,95.93634497,45,45,,Prof.Yeh-RHEA
Nb1Ti1V2Zr1,,,25,6.3,6.404764627,BCC,,918,,,104.6359102,50,,https://doi.org/10.1016/j.dib.2018.11.111,Data in Brief 21 (2018) 2664¡V2678
Nb1Ti1V2Zr1,,,600,6.3,6.404764627,BCC,,571,,,104.6359102,50,,https://doi.org/10.1016/j.dib.2018.11.111,Data in Brief 21 (2018) 2664¡V2678
Nb1Ti1V2Zr1,,,800,6.3,6.404764627,BCC,,240,,,104.6359102,50,,https://doi.org/10.1016/j.dib.2018.11.111,Data in Brief 21 (2018) 2664¡V2678
Nb1Ti1V2Zr1,,,1000,6.3,6.404764627,BCC,,72,,,104.6359102,50,,https://doi.org/10.1016/j.dib.2018.11.111,Data in Brief 21 (2018) 2664¡V2678
Nb1Ti1V2Zr1,,C,25,6.4,6.404764627,BCC,304,918,,,104.6359102,50,,https://doi.org/10.1016/j.dib.2018.11.111,Data in Brief 21 (2018) 2664¡V2678
Nb1Ti1V1Zr1,,,25,6.3,6.458317279,BCC,,1105,,,100.1988131,50,,https://doi.org/10.1016/j.dib.2018.11.111,Data in Brief 21 (2018) 2664¡V2678
Nb1Ti1V1Zr1,,,600,6.3,6.458317279,BCC,,834,,,100.1988131,50,,https://doi.org/10.1016/j.dib.2018.11.111,Data in Brief 21 (2018) 2664¡V2678
Nb1Ti1V1Zr1,,,800,6.3,6.458317279,BCC,,187,,,100.1988131,50,,https://doi.org/10.1016/j.dib.2018.11.111,Data in Brief 21 (2018) 2664¡V2678
Nb1Ti1V1Zr1,,,1000,6.3,6.458317279,BCC,,58,,,100.1988131,50,,https://doi.org/10.1016/j.dib.2018.11.111,Data in Brief 21 (2018) 2664¡V2678
Nb1Ti1V1Zr1,,C,25,6.5,6.458317279,BCC,,1104,,,100.1988131,50,,https://doi.org/10.1016/j.dib.2018.11.111,Data in Brief 21 (2018) 2664¡V2678
Nb1Ti1V1Zr1,,C,25,6.5,6.458317279,BCC,335,1105,,,100.1988131,50,,https://doi.org/10.1016/j.dib.2018.11.111,Data in Brief 21 (2018) 2664¡V2678
Nb1Ti1V1Zr1,CAST,C,25,6.521,6.458317279,BCC,,1051,,,100.1988131,50,50,,Prof.Yeh-RHEA
Ni1Co1,,C,25,8.875,8.870783937,FCC,,107,,,204.5271493,42.4,,,Prof.Yeh-3dtransitional
Ni1Co1Cr1,,C,25,8.275,8.278316008,FCC,,300,,,230.8052709,59.7,,,Prof.Yeh-3dtransitional
Ni1Co1Cr1Mn1,,C,25,8.065,8.066118534,FCC,,282,,,222.1443966,43.8,,,Prof.Yeh-3dtransitional
Ni1Co1Mn1,,C,25,8.375,8.372859777,FCC,,231,,,202.1994178,38.3,,,Prof.Yeh-3dtransitional
Si0.1Mo1Nb1Ti1V1,CAST,C,25,7.19,7.193962502,BCC+Sec.,,1543,,,162.9446206,20.4,12.4,,Prof.Yeh-RHEA
Si0.25Mo0.25Nb1Ti1V1Zr1,CAST,C,25,6.38,6.384894346,BCC+Sec.,,1343,,,107.8486882,23,14.5,,Prof.Yeh-RHEA
Si0.2Mo1Nb1Ti1V1,CAST,C,25,7.075,7.052858929,BCC+Sec.,,1768,,,159.5818864,16.5,8.2,,Prof.Yeh-RHEA
Si0.3Mo1Nb1Ti1V1,CAST,C,25,6.965,6.919709498,BCC+Sec.,,2062,,,156.4087127,11.1,2.1,,Prof.Yeh-RHEA
Si0.4Mo1Nb1Ti1V1,CAST,C,25,6.859,6.793860072,BCC+Sec.,,2093,,,153.4095104,10.9,1.4,,Prof.Yeh-RHEA
Si0.5Nb1Ti1V1Zr1,CAST,C,25,5.94,5.958700441,BCC+Sec.,,1354,,,93.76243981,19,10.5,,Prof.Yeh-RHEA
Ta1Ti1Zr1,CAST,T,25,,9,BCC+Sec.,485,,284,157,,0,,10.3390/e21020114,
Ti0.25Nb1Mo1Ta1W1,,C,25,,13.09564737,BCC,478.3,1109,1197,,241.768928,2.5,,https://doi.org/10.1016/j.dib.2018.11.111,Data in Brief 21 (2018) 2664¡V2678
Ti0.5Nb1Mo1Ta1W1,,C,25,,12.59689771,BCC,481.2,1211,1579,,234.47241,5.9,,https://doi.org/10.1016/j.dib.2018.11.111,Data in Brief 21 (2018) 2664¡V2678
Ti0.75Nb1Mo1Ta1W1,,C,25,,12.15284498,BCC,495.6,1305,1593,,227.9760874,8.4,,https://doi.org/10.1016/j.dib.2018.11.111,Data in Brief 21 (2018) 2664¡V2678
Ti1Nb1Mo1Ta1W1,,C,25,,11.75495916,BCC,507.5,1455,1910,,222.155169,11.5,,https://doi.org/10.1016/j.dib.2018.11.111,Data in Brief 21 (2018) 2664¡V2678