FORMULA,PROPERTY: Processing method,PROPERTY: Type of test,Measuremet T (?°C),PROPERTY: Exp. Density (g/cm$^3$),PROPERTY: Calculated Density (g/cm$^3$),PROPERTY: Microstructure,PROPERTY: HV,PROPERTY: YS (MPa),PROPERTY: UTS (MPa),PROPERTY: Exp. Young modulus (GPa),PROPERTY: Calculated Young modulus (GPa),PROPERTY: Elongation (%),PROPERTY: Elongation plastic (%),Others: DOI,Others: Reference
Nb1 Ti1 V0.3 Zr1,,C,25.0,6.5,6.509762281,BCC,,866.0,,,95.93634497,45.0,,https://doi.org/10.1016/j.dib.2018.11.111,Data in Brief 21 (2018) 2664¡V2678
Nb1 Ti1 V0.3 Zr1,CAST,C,25.0,6.5,6.509762281,BCC,,866.0,,,95.93634497,45.0,45.0,,Prof.Yeh-RHEA
Nb1 Ti1 V2 Zr1,,,25.0,6.3,6.404764627,BCC,,918.0,,,104.6359102,50.0,,https://doi.org/10.1016/j.dib.2018.11.111,Data in Brief 21 (2018) 2664¡V2678
Nb1 Ti1 V2 Zr1,,,600.0,6.3,6.404764627,BCC,,571.0,,,104.6359102,50.0,,https://doi.org/10.1016/j.dib.2018.11.111,Data in Brief 21 (2018) 2664¡V2678
Nb1 Ti1 V2 Zr1,,,800.0,6.3,6.404764627,BCC,,240.0,,,104.6359102,50.0,,https://doi.org/10.1016/j.dib.2018.11.111,Data in Brief 21 (2018) 2664¡V2678
Nb1 Ti1 V2 Zr1,,,1000.0,6.3,6.404764627,BCC,,72.0,,,104.6359102,50.0,,https://doi.org/10.1016/j.dib.2018.11.111,Data in Brief 21 (2018) 2664¡V2678
Nb1 Ti1 V2 Zr1,,C,25.0,6.4,6.404764627,BCC,304.0,918.0,,,104.6359102,50.0,,https://doi.org/10.1016/j.dib.2018.11.111,Data in Brief 21 (2018) 2664¡V2678
Nb1 Ti1 V1 Zr1,,,25.0,6.3,6.458317279,BCC,,1105.0,,,100.1988131,50.0,,https://doi.org/10.1016/j.dib.2018.11.111,Data in Brief 21 (2018) 2664¡V2678
Nb1 Ti1 V1 Zr1,,,600.0,6.3,6.458317279,BCC,,834.0,,,100.1988131,50.0,,https://doi.org/10.1016/j.dib.2018.11.111,Data in Brief 21 (2018) 2664¡V2678
Nb1 Ti1 V1 Zr1,,,800.0,6.3,6.458317279,BCC,,187.0,,,100.1988131,50.0,,https://doi.org/10.1016/j.dib.2018.11.111,Data in Brief 21 (2018) 2664¡V2678
Nb1 Ti1 V1 Zr1,,,1000.0,6.3,6.458317279,BCC,,58.0,,,100.1988131,50.0,,https://doi.org/10.1016/j.dib.2018.11.111,Data in Brief 21 (2018) 2664¡V2678
Nb1 Ti1 V1 Zr1,,C,25.0,6.5,6.458317279,BCC,,1104.0,,,100.1988131,50.0,,https://doi.org/10.1016/j.dib.2018.11.111,Data in Brief 21 (2018) 2664¡V2678
Nb1 Ti1 V1 Zr1,,C,25.0,6.5,6.458317279,BCC,335.0,1105.0,,,100.1988131,50.0,,https://doi.org/10.1016/j.dib.2018.11.111,Data in Brief 21 (2018) 2664¡V2678
Nb1 Ti1 V1 Zr1,CAST,C,25.0,6.521,6.458317279,BCC,,1051.0,,,100.1988131,50.0,50.0,,Prof.Yeh-RHEA
Co1 Ni1,,C,25.0,8.875,8.870783937,FCC,,107.0,,,204.5271493,42.4,,,Prof.Yeh-3dtransitional
Co1 Cr1 Ni1,,C,25.0,8.275,8.278316008,FCC,,300.0,,,230.8052709,59.7,,,Prof.Yeh-3dtransitional
Co1 Cr1 Mn1 Ni1,,C,25.0,8.065,8.066118534,FCC,,282.0,,,222.1443966,43.8,,,Prof.Yeh-3dtransitional
Co1 Mn1 Ni1,,C,25.0,8.375,8.372859777,FCC,,231.0,,,202.1994178,38.3,,,Prof.Yeh-3dtransitional
Mo1 Nb1 Ta1 Ti0.25 W1,,C,25.0,,13.09564737,BCC,478.3,1109.0,1197.0,,241.768928,2.5,,https://doi.org/10.1016/j.dib.2018.11.111,Data in Brief 21 (2018) 2664¡V2678
Mo1 Nb1 Ta1 Ti0.5 W1,,C,25.0,,12.59689771,BCC,481.2,1211.0,1579.0,,234.47241,5.9,,https://doi.org/10.1016/j.dib.2018.11.111,Data in Brief 21 (2018) 2664¡V2678
Mo1 Nb1 Ta1 Ti0.75 W1,,C,25.0,,12.15284498,BCC,495.6,1305.0,1593.0,,227.9760874,8.4,,https://doi.org/10.1016/j.dib.2018.11.111,Data in Brief 21 (2018) 2664¡V2678
Mo1 Nb1 Ta1 Ti1 W1,,C,25.0,,11.75495916,BCC,507.5,1455.0,1910.0,,222.155169,11.5,,https://doi.org/10.1016/j.dib.2018.11.111,Data in Brief 21 (2018) 2664¡V2678