FORMULA,PROPERTY: Processing method,PROPERTY: Type of test,Measuremet T (?°C),PROPERTY: Exp. Density (g/cm$^3$),PROPERTY: Calculated Density (g/cm$^3$),PROPERTY: Microstructure,PROPERTY: HV,PROPERTY: YS (MPa),PROPERTY: UTS (MPa),PROPERTY: Exp. Young modulus (GPa),PROPERTY: Calculated Young modulus (GPa),PROPERTY: Elongation (%),PROPERTY: Elongation plastic (%),Others: DOI,Others: Reference
Ag1 Al1 Nb1 Ti1 Zn1,ANNEAL,,,4.75,6.7,,,,,,,,,10.1016/j.msea.2018.12.020,
Ag1 Al1 Nb1 Ti1 Zn1,ANNEAL,,,5.78,6.7,,,,,,,,,10.1016/j.msea.2018.12.020,
Ag1 Al1 Nb1 Ti1 Zn1,ANNEAL,,,5.79,6.7,,,,,,,,,10.1016/j.msea.2018.12.020,
Ag1 Al1 Nb1 Ti1 Zn1,ANNEAL,,,5.51,6.7,,,,,,,,,10.1016/j.msea.2018.12.020,
Ag1 Al1 Nb1 Ti1 Zn1,ANNEAL,,,,6.7,,,,,,,,,10.1016/j.msea.2018.12.020,
Al0.053 Cu1 Mn1 Ni1,CAST,C,25.0,,8.3,FCC,166.0,330.0,,,173.0,45.0,,10.1016/j.jallcom.2015.07.285,
Al0.108 Co0.514 Cr0.514 Cu0.108 Fe0.514 Ni1,WROUGHT,T,25.0,,8.0,FCC,,719.0,1048.0,,209.0,30.0,,10.1016/j.msea.2017.04.111,
Al0.10 Co1 Cr1 Fe1 Mn1 Ni1,,,25.0,7.9,7.879317948,FCC,180.0,,,,215.7108266,,,https://doi.org/10.1016/j.dib.2018.11.111,Data in Brief 21 (2018) 2664¡V2678
Al0.133 Co1 Cr0.667 Fe0.667 Ni1 Ti0.333,ANNEAL,,25.0,,7.6,FCC,487.0,,,,201.0,,,10.1016/j.actamat.2011.06.041,
Al0.143 Cr0.343 Fe1 Mn0.8 Ni0.571,CAST,T,25.0,,7.5,FCC,,280.0,556.0,,204.0,48.0,48.2,10.1016/j.msea.2019.05.056,
Al0.143 Cr0.343 Fe1 Mn0.8 Ni0.571,CAST,T,25.0,,7.5,FCC,,1253.0,1392.0,,204.0,6.78,8.2,10.1016/j.msea.2019.05.056,
Al0.15 Cr0.5 Cu0.25 Fe0.5 Ni1,WROUGHT,T,25.0,,7.8,FCC,107.0,62.0,169.0,16.6,200.0,98.0,,10.1016/j.matchar.2019.109792,
Al0.15 Hf0.15 Nb0.3 Ti0.4,ANNEAL,C,25.0,7.07,7.062829579,Other,,830.0,,,99.54532257,50.0,50.0,,Prof.Yeh-RHEA
Al0.167 Co1 Cr1 Fe1 Ni1 Ti0.083,ANNEAL,T,25.0,,7.8,FCC,,210.0,503.0,,214.0,70.0,,10.1016/j.actamat.2015.08.076,
Al0.186 Cr0.149 Fe1 Mn0.861 Ni0.28,CAST,T,25.0,,7.3,,,159.0,535.0,,,,40.8,10.1016/j.msea.2019.01.083,
Al0.186 Cr0.149 Fe1 Mn0.861 Ni0.28,ANNEAL,T,25.0,,7.3,,,409.0,584.0,,,,10.5,10.1016/j.msea.2019.01.083,
Al0.186 Cr0.149 Fe1 Mn0.861 Ni0.28,CAST,T,25.0,,7.3,,,355.0,1174.0,,,,49.5,10.1016/j.msea.2019.01.083,
Al0.186 Cr0.149 Fe1 Mn0.861 Ni0.28,ANNEAL,T,25.0,,7.3,,,954.0,978.0,,,,2.0,10.1016/j.msea.2019.01.083,
Al0.195 Mo0.07 Nb0.215 Ti0.185 V0.24 Zr0.095,CAST,C,25.0,5.97,6.029984581,Other,,1209.0,,,114.4923257,1.0,1.0,,Prof.Yeh-RHEA
Al0.1 Co1 Cr1 Fe1 Mn1 Ni1,CAST,,25.0,,7.9,FCC,180.0,,,,,,12.6,10.1016/j.actamat.2013.09.037,
Al0.1 Co1 Cr1 Fe1 Ni1,WROUGHT,T,25.0,,8.0,FCC,,1198.0,,,220.0,1.5,,10.1016/j.actamat.2018.12.012,
Al0.1 Co1 Cr1 Fe1 Ni1,WROUGHT,T,25.0,,8.0,FCC,,1403.0,,,220.0,1.2,,10.1016/j.actamat.2018.12.012,
Al0.1 Co1 Cr1 Fe1 Ni1,WROUGHT,T,25.0,,8.0,FCC,,711.0,928.0,,220.0,30.3,,10.1016/j.actamat.2018.12.012,
Al0.1 Co1 Cr1 Fe1 Ni1,WROUGHT,T,25.0,,8.0,FCC,,356.0,,,220.0,42.4,,10.1016/j.actamat.2018.12.012,
Al0.1 Co1 Cr1 Fe1 Ni1,ANNEAL,C,23.0,,7.983409687,Other,,366.0,715.0,,220.2655703,46.0,,,Paper_Collection_5_element
Al0.1 Cr0.5 Cu0.5 Fe0.5 Ni1,,,25.0,,8.0,FCC,,,,,197.0,,,10.1063/1.3587228,
Al0.20 Co1 Cr1 Fe1 Mn1 Ni1,,T,25.0,7.7,7.739021059,FCC,171.0,220.0,,,211.7652315,56.0,,https://doi.org/10.1016/j.dib.2018.11.111,Data in Brief 21 (2018) 2664¡V2678
Al0.20 Co1 Cr1 Fe1 Mn1 Ni1,,C,25.0,7.735,7.739021059,FCC,170.5,219.5,,,211.7652315,58.0,,,Prof.Yeh-3dtransitional
Al0.225 Hf0.05 Mo0.105 Nb0.185 Ti0.175 V0.26,CAST,C,25.0,6.27,6.429196025,Other,,876.0,,,124.5215411,1.0,1.0,,Prof.Yeh-RHEA
Al0.229 Co0.486 Cr0.4 Cu0.229 Fe0.486 Mo0.003 Ni1 Ti0.029 W0.003,CAST,,,,7.7,,231.0,,,,,,,10.1016/j.ultramic.2015.06.009,
Al0.229 Co0.486 Cr0.4 Cu0.229 Fe0.486 Mo0.003 Ni1 Ti0.029 W0.003,ANNEAL,,,,7.7,,178.0,,,,,,,10.1016/j.ultramic.2015.06.009,
Al0.229 Co0.486 Cr0.4 Cu0.229 Fe0.486 Mo0.003 Ni1 Ti0.029 W0.003,ANNEAL,,,,7.7,,343.0,,,,,,,10.1016/j.ultramic.2015.06.009,
Al0.229 Co0.486 Cr0.4 Cu0.229 Fe0.486 Mo0.003 Ni1 Ti0.029 W0.003,ANNEAL,,,,7.7,,171.0,,,,,,,10.1016/j.matchar.2018.06.036,
Al0.242 Co0.515 Cr0.515 Cu0.242 Fe0.515 Ni1,ANNEAL,,,,7.7,,168.0,,,,,,,10.1016/j.ultramic.2015.06.009,
Al0.242 Co0.515 Cr0.515 Cu0.242 Fe0.515 Ni1,ANNEAL,,,,7.7,,328.0,,,,,,,10.1016/j.ultramic.2015.06.009,
Al0.242 Co0.515 Cr0.515 Cu0.242 Fe0.515 Ni1,ANNEAL,,,,7.7,,206.0,,,,,,,10.1016/j.matchar.2018.06.036,
Al0.242 Co0.515 Cr0.515 Cu0.242 Fe0.515 Ni1,CAST,T,25.0,,7.7,Other,,357.0,459.0,,,9.0,,10.1007/s11837-013-0756-3,
Al0.242 Co0.515 Cr0.515 Cu0.242 Fe0.515 Ni1,ANNEAL,T,25.0,,7.7,Other,,365.0,365.0,,,0.1,,10.1007/s11837-013-0756-3,
Al0.245 Mo0.1 Nb0.19 Ti0.15 V0.315,CAST,C,25.0,5.87,5.907716601,Other,,843.0,,,125.9258887,1.0,1.0,,Prof.Yeh-RHEA
Al0.255 Hf0.06 Nb0.205 Ti0.09 V0.34 Zr0.05,CAST,C,25.0,6.0,6.242562835,Other,,1495.0,,,98.90261279,1.0,1.0,,Prof.Yeh-RHEA
Al0.25 Co0.5 Cr0.5 Cu0.5 Fe0.5 Ni0.5 V1,CAST,,25.0,,7.2,BCC,587.0,,,,171.0,,,10.1007/s11661-006-0081-3,
Al0.25 Co1 Cr1 Cu0.5 Fe1 Ni1 Ti0.5,CAST,,25.0,,7.4,FCC,,,,,192.0,,,10.1016/j.jallcom.2008.11.059,
Al0.25 Co1 Cr1 Cu0.75 Fe1 Ni1 Ti0.5,CAST,C,25.0,,7.5,FCC,,750.0,1970.0,103.0,189.0,,39.0,10.1016/j.jallcom.2008.11.059,
Al0.25 Co1 Cr1 Cu1 Fe1 Mn1 Ni1 Ti1 V1,CAST,C,25.0,,7.1,BCC,,1465.0,2016.0,190.0,174.0,2.0,,10.1016/j.msea.2006.11.049,
Al0.25 Co1 Cr1 Fe1 Ni1,ANNEAL,,25.0,,7.7,FCC,110.0,,,,213.0,,,10.1016/j.jallcom.2009.08.090,
Al0.25 Co1 Cr1 Fe1 Ni1,ANNEAL,,25.0,,7.7,FCC,113.0,,,,213.0,,,10.1016/j.jallcom.2009.08.090,
Al0.25 Co1 Fe1 Ni1,CAST,C,25.0,,7.9,FCC,138.0,158.0,,,192.0,,,10.1016/j.jmmm.2014.07.023,
Al0.25 Co1 Cr1 Cu0.5 Fe1 Ni1 Ti0.5,,,25.0,7.4,7.391081495,FCC,,,,,192.0025671,,,https://doi.org/10.1016/j.dib.2018.11.111,Data in Brief 21 (2018) 2664¡V2678
Al0.25 Co1 Cr1 Cu0.75 Fe1 Ni1 Ti0.5,,C,25.0,7.5,7.458566983,FCC,,750.0,1970.0,195.0,189.296876,39.0,,https://doi.org/10.1016/j.dib.2018.11.111,Data in Brief 21 (2018) 2664¡V2678
Al0.25 Co1 Cr1 Cu0.75 Fe1 Ni1 Ti0.5,,C,25.0,7.455,7.458566983,FCC,,750.0,,102.5,189.296876,38.5,,,Prof.Yeh-3dtransitional
Al0.25 Co1 Cr1 Fe1 Ni1,,,25.0,7.7,7.719849722,FCC,110.0,,,,212.7722739,,,https://doi.org/10.1016/j.dib.2018.11.111,Data in Brief 21 (2018) 2664¡V2678
Al0.25 Co1 Cr1 Fe1 Ni1,,,25.0,7.7,7.719849722,FCC,113.0,,,,212.7722739,,,https://doi.org/10.1016/j.dib.2018.11.111,Data in Brief 21 (2018) 2664¡V2678
Al0.25 Co1 Fe1 Ni1,,C,25.0,7.9,7.886957534,FCC,138.0,158.0,,,191.8170678,,,https://doi.org/10.1016/j.dib.2018.11.111,Data in Brief 21 (2018) 2664¡V2678
Al0.25 Co1 Fe1 Ni1,,C,25.0,7.885,7.886957534,FCC,137.5,160.5,,,191.8170678,,,,Prof.Yeh-3dtransitional
Al0.25 Cr0.417 Fe0.417 Ni1,CAST,T,25.0,,7.3,FCC,,441.0,757.0,,196.0,45.0,,10.1016/j.jallcom.2018.08.176,
Al0.25 Cr0.5 Nb0.5 Ti1 V0.25,CAST,C,25.0,,5.8,BCC,,1240.0,,,134.0,,,10.1016/j.matlet.2016.11.030,
Al0.25 Cr1 Cu1 Fe1 Ni2,,C,,,7.96333292,FCC,,,,,195.3236324,,,,Paper_Collection_5_element
Al0.25 Mo1 Nb1 Ti1 V1,CAST,C,25.0,,7.1,BCC,460.0,1250.0,1500.0,,161.0,13.0,,10.3390/e16020870,
Al0.25 Mo1 Nb1 Ti1 V1,,C,25.0,7.1,7.065041148,BCC,460.0,1250.0,,,160.7240221,13.0,,https://doi.org/10.1016/j.dib.2018.11.111,Data in Brief 21 (2018) 2664¡V2678
Al0.25 Mo1 Nb1 Ti1 V1,CAST,C,25.0,7.1,7.065041148,BCC,460.0,1250.0,,164.0,160.7240221,13.0,12.0,,Prof.Yeh-RHEA
Al0.25 Nb1 Ta1 Ti1 V1,CAST,C,25.0,,8.8,BCC,,1330.0,,,130.0,,,10.1016/j.proeng.2012.03.043,
Al0.25 Nb1 Ta1 Ti1 V1,,C,25.0,8.8,8.794810956,BCC,,1330.0,,130.0,130.4925823,,,https://doi.org/10.1016/j.dib.2018.11.111,Data in Brief 21 (2018) 2664¡V2678
Al0.25 Nb1 Ta1 Ti1 V1,CAST,C,25.0,8.8,8.794810956,BCC,,1330.0,,92.0,130.4925823,50.0,50.0,,Prof.Yeh-RHEA
Al0.278 Co0.556 Cr0.556 Cu0.556 Fe0.556 Ni0.556 V1,CAST,,25.0,,7.2,BCC,597.0,,,,172.0,,,10.1007/s11661-006-0081-3,
Al0.278 Co0.694 Cr0.222 Fe0.417 Ni1 Ti0.167,ANNEAL,T,23.0,,7.4,FCC,,520.0,696.0,,,,,10.3390/e21020169,
Al0.278 Co0.694 Cr0.222 Fe0.417 Ni1 Ti0.167,ANNEAL,T,600.0,,7.4,FCC,,470.0,561.0,,,,,10.3390/e21020169,
Al0.278 Co0.694 Cr0.222 Fe0.417 Ni1 Ti0.167,ANNEAL,T,700.0,,7.4,FCC,,461.0,560.0,,,12.0,,10.3390/e21020169,
Al0.278 Co0.694 Cr0.222 Fe0.417 Ni1 Ti0.167,ANNEAL,T,800.0,,7.4,FCC,,445.0,536.0,,,20.0,,10.3390/e21020169,
Al0.278 Co0.694 Cr0.222 Fe0.417 Ni1 Ti0.167,ANNEAL,T,900.0,,7.4,FCC,,219.0,312.0,,,18.0,,10.3390/e21020169,
Al0.278 Co0.694 Cr0.222 Fe0.417 Ni1 Ti0.167,ANNEAL,T,23.0,,7.4,FCC,,627.0,1197.0,,,11.0,,10.3390/e21020169,
Al0.278 Co0.694 Cr0.222 Fe0.417 Ni1 Ti0.167,ANNEAL,T,600.0,,7.4,FCC,,594.0,1006.0,,185.0,49.0,,10.3390/e21020169,
Al0.278 Co0.694 Cr0.222 Fe0.417 Ni1 Ti0.167,ANNEAL,T,700.0,,7.4,FCC,,547.0,840.0,,185.0,11.0,,10.3390/e21020169,
Al0.278 Co0.694 Cr0.222 Fe0.417 Ni1 Ti0.167,ANNEAL,T,800.0,,7.4,FCC,,399.0,575.0,,185.0,9.0,,10.3390/e21020169,
Al0.278 Co0.694 Cr0.222 Fe0.417 Ni1 Ti0.167,ANNEAL,T,900.0,,7.4,FCC,,243.0,319.0,,185.0,6.0,,10.3390/e21020169,
Al0.278 Co0.694 Cr0.222 Fe0.417 Ni1 Ti0.167,CAST,,,,7.4,,343.0,,,,185.0,8.0,,10.1007/s11837-015-1484-7,
Al0.278 Co0.694 Cr0.222 Fe0.417 Ni1 Ti0.167,ANNEAL,,,,7.4,,341.0,,,,185.0,27.0,,10.1007/s11837-015-1484-7,
Al0.286 Cr0.343 Fe1 Mn0.657 Ni0.571,WROUGHT,T,25.0,,7.2,FCC,,320.0,625.0,,195.0,42.2,42.45,10.1016/j.msea.2019.05.056,
Al0.286 Cr0.343 Fe1 Mn0.657 Ni0.571,WROUGHT,T,25.0,,7.2,FCC,,1400.0,1500.0,,195.0,5.83,7.85,10.1016/j.msea.2019.05.056,
Al0.2 Co1.5 Cr1 Fe1 Ni1.5 Ti0.5,,,25.0,7.6,7.551427889,FCC,487.0,,,,200.778353,,,https://doi.org/10.1016/j.dib.2018.11.111,Data in Brief 21 (2018) 2664¡V2678
Al0.2 Co1 Cr1 Fe1 Mn1 Ni1,CAST,T,25.0,,7.7,FCC,171.0,220.0,,,212.0,56.0,,10.1016/j.actamat.2013.09.037,
Al0.2 Cr0.5 Cu0.5 Fe0.5 Ni1,,,25.0,,7.8,FCC,,,,,190.0,,,10.1063/1.3587228,
Al0.2 Cr1 Cu1 Fe1 Ni2,,,25.0,8.0,8.035241948,FCC,,,,,197.0352363,,,https://doi.org/10.1016/j.dib.2018.11.111,Data in Brief 21 (2018) 2664¡V2678
Al0.2 Mo1 Ta1 Ti1 V1,CAST,C,25.0,,9.3,BCC,,1021.0,1249.0,,183.0,,,10.4028/www.scientific.net/MSF.898.638,
Al0.304 Co1 Cr1 Fe1 Ni1,WROUGHT,,,,7.6,FCC,,,,,,48.0,,10.1016/j.scriptamat.2016.06.019,
Al0.304 Co1 Cr1 Fe1 Ni1,CAST,C,25.0,,7.6,FCC,,,,,210.0,87.0,,10.1016/j.msea.2015.02.072,
Al0.304 Co1 Cr1 Fe1 Ni1,,T,25.0,,7.6,FCC,,260.0,620.0,,,,,10.1016/j.matlet.2017.04.072,
Al0.304 Co1 Cr1 Fe1 Ni1,WROUGHT,T,25.0,,7.6,FCC,,159.0,410.0,,,43.0,,10.1016/j.matdes.2017.02.072,
Al0.304 Co1 Cr1 Fe1 Ni1,WROUGHT,T,25.0,,7.6,FCC,,263.0,589.0,,,45.0,,10.1016/j.matdes.2017.02.072,
Al0.304 Co1 Cr1 Fe1 Ni1,ANNEAL,,,,7.6,FCC,,,,,,44.0,,10.1016/j.jallcom.2013.11.084,
Al0.312 Ca0.021 Li0.792 Mg1 Si0.021,CAST,C,25.0,1.52,1.4,,,360.0,,,,9.0,,10.3390/ma12071136,
Al0.312 Co0.625 Cr0.625 Cu0.625 Fe0.625 Ni0.625 V1,CAST,,25.0,,7.2,BCC,594.0,,,,174.0,,,10.1007/s11661-006-0081-3,
Al0.333 Ca0.011 Li0.844 Mg1 Si0.033,CAST,C,25.0,1.5,1.4,,,342.0,,,,44.0,,10.3390/ma12071136,
Al0.333 Ca0.011 Li0.867 Mg1 Si0.011,CAST,C,25.0,1.46,1.4,,,300.0,,,,63.0,,10.3390/ma12071136,
Al0.333 Co0.333 Cu0.333 Fe0.333 Ni1,CAST,C,25.0,,7.5,FCC,279.6,268.0,,,167.0,,,10.1016/j.jmst.2018.12.014,
Al0.333 Cr0.667 Fe1 Mn0.667 Ni0.333,CAST,,25.0,,7.0,BCC,396.0,,,,201.0,,,10.1016/j.msea.2010.05.052,
Al0.335 Hf0.055 Nb0.195 Ti0.1 V0.315,CAST,C,25.0,5.64,5.847325423,Other,,702.0,,,98.4020848,1.0,1.0,,Prof.Yeh-RHEA
Al0.343 Co0.514 Cr0.514 Fe1 Ni0.514,CAST,T,650.0,,7.2,,,400.0,468.0,,,6.3,,10.1016/j.scriptamat.2016.04.014,
Al0.343 Co0.514 Cr0.514 Fe1 Ni0.514,CAST,T,700.0,,7.2,,,220.0,340.0,,,5.4,,10.1016/j.scriptamat.2016.04.014,
Al0.343 Co0.514 Cr0.514 Fe1 Ni0.514,CAST,C,25.0,,7.2,,,1166.0,,,,30.2,,10.1016/j.scriptamat.2016.04.014,
Al0.357 Co0.714 Cr0.714 Cu0.714 Fe0.714 Ni0.714 V1,CAST,,25.0,,7.3,BCC,577.0,,,,175.0,,,10.1007/s11661-006-0081-3,
Al0.375 Co1 Cr1 Fe1 Ni1,ANNEAL,,25.0,,7.5,FCC,131.0,,,,207.0,,,10.1016/j.jallcom.2009.08.090,
Al0.375 Co1 Cr1 Fe1 Ni1,ANNEAL,,25.0,,7.5,FCC,196.0,,,,207.0,,,10.1016/j.jallcom.2009.08.090,
Al0.375 Co1 Cr1 Fe1 Ni1,,,25.0,7.5,7.519494797,FCC,131.0,,,,207.0759655,,,https://doi.org/10.1016/j.dib.2018.11.111,Data in Brief 21 (2018) 2664¡V2678
Al0.375 Co1 Cr1 Fe1 Ni1,,,25.0,7.5,7.519494797,FCC,196.0,,,,207.0759655,,,https://doi.org/10.1016/j.dib.2018.11.111,Data in Brief 21 (2018) 2664¡V2678
Al0.38 Co1 Cr1 Fe1 Mn1 Ni1,CAST,T,25.0,,7.5,FCC,182.0,244.0,,,205.0,45.0,,10.1016/j.actamat.2013.09.037,
Al0.38 Co1 Cr1 Fe1 Mn1 Ni1,,T,25.0,7.5,7.50474373,FCC,182.0,244.0,,,205.1766073,45.0,,https://doi.org/10.1016/j.dib.2018.11.111,Data in Brief 21 (2018) 2664¡V2678
Al0.38 Co1 Cr1 Fe1 Mn1 Ni1,,C,25.0,7.505,7.50474373,FCC,181.5,243.5,,,205.1766073,46.0,,,Prof.Yeh-3dtransitional
Al0.3 Co1 Cr1 Cu1 Fe1,,,25.0,,7.7,FCC,180.0,,,,194.0,,,10.3166/acsm.31.633-648,
Al0.3 Co1 Cr1 Fe1 Mn1 Ni1,POWDER,,,,7.6,,,,,,,,4.9,10.1016/j.scriptamat.2018.12.021,
Al0.3 Co1 Cr1 Fe1 Mo0.1 Ni1,,,,,7.7,FCC,200.0,,,,214.0,,,10.1016/j.jallcom.2010.02.032,
Al0.3 Co1 Cr1 Fe1 Ni1,CAST,C,300.0,,7.6,FCC,132.0,,,,,25.0,,10.1088/2053-1591/ab0597,
Al0.3 Co1 Cr1 Fe1 Ni1,CAST,C,340.0,,7.6,FCC,147.0,,,,210.0,,,10.1088/2053-1591/ab0597,
Al0.3 Co1 Cr1 Fe1 Ni1,CAST,C,430.0,,7.6,FCC,165.0,,,,,65.0,,10.1088/2053-1591/ab0597,
Al0.3 Co1 Cr1 Fe1 Ni1,CAST,,,,7.6,FCC,117.0,,,,210.0,,,10.1016/j.matdes.2019.107698,
Al0.3 Co1 Cr1 Fe1 Ni1,,,,,7.6,FCC,160.0,,,,210.0,,,10.1016/j.jallcom.2010.02.032,
Al0.3 Co1 Cr1 Fe1 Ni1,WROUGHT,T,25.0,,7.6,FCC,,159.0,410.0,,210.0,,,10.1016/j.actamat.2018.12.010,
Al0.3 Co1 Cr1 Cu1 Fe1,,,25.0,7.7,7.666069343,FCC,180.0,,,,194.2601286,,,https://doi.org/10.1016/j.dib.2018.11.111,Data in Brief 21 (2018) 2664¡V2678
Al0.3 Co1 Cr1 Cu1 Fe1 Ni1,,,25.0,7.9,7.882943926,FCC,180.0,,,,195.2637304,,,https://doi.org/10.1016/j.dib.2018.11.111,Data in Brief 21 (2018) 2664¡V2678
Al0.3 Cr0.5 Cu0.5 Fe0.5 Ni1,,,25.0,,7.5,FCC,,,,,185.0,,,10.1063/1.3587228,
Al0.3 Hf1 Nb1 Ta1 Ti1 Zr1,CAST,C,25.0,,9.5,BCC,353.0,1188.0,,63.0,105.0,50.0,,10.1016/j.jallcom.2014.11.064,
Al0.3 Hf1 Nb1 Ta1 Ti1 Zr1,,C,25.0,9.6,9.549692921,BCC,353.0,1188.0,,108.0,105.1476585,50.0,,https://doi.org/10.1016/j.dib.2018.11.111,Data in Brief 21 (2018) 2664¡V2678
Al0.3 Hf1 Nb1 Ta1 Ti1 Zr1,CAST,C,25.0,9.5,9.549692921,BCC,353.0,1188.0,,63.0,105.1476585,50.0,50.0,,Prof.Yeh-RHEA
Al0.3 Nb1 Ta0.8 Ti1.4 V0.2 Zr1.3,,,25.0,7.7,7.706514339,BCC,,1965.0,,,107.1964186,5.0,,https://doi.org/10.1016/j.dib.2018.11.111,Data in Brief 21 (2018) 2664¡V2678
Al0.3 Nb1 Ta0.8 Ti1.4 V0.2 Zr1.3,,,800.0,7.7,7.706514339,BCC,,678.0,,,107.1964186,50.0,,https://doi.org/10.1016/j.dib.2018.11.111,Data in Brief 21 (2018) 2664¡V2678
Al0.3 Nb1 Ta0.8 Ti1.4 V0.2 Zr1.3,,,1000.0,7.7,7.706514339,BCC,,166.0,,,107.1964186,50.0,,https://doi.org/10.1016/j.dib.2018.11.111,Data in Brief 21 (2018) 2664¡V2678
Al0.3 Nb1 Ta0.8 Ti1.4 V0.2 Zr1.3,,C,25.0,7.7,7.706514339,BCC,500.0,1965.0,2061.0,,107.1964186,5.0,,https://doi.org/10.1016/j.dib.2018.11.111,Data in Brief 21 (2018) 2664¡V2678
Al0.3 Nb1 Ta1 Ti1.4 Zr1.3,,,25.0,8.1,8.088884841,BCC,,1965.0,,,109.5559669,5.0,,https://doi.org/10.1016/j.dib.2018.11.111,Data in Brief 21 (2018) 2664¡V2678
Al0.3 Nb1 Ta1 Ti1.4 Zr1.3,,,800.0,8.1,8.088884841,BCC,,362.0,,,109.5559669,50.0,,https://doi.org/10.1016/j.dib.2018.11.111,Data in Brief 21 (2018) 2664¡V2678
Al0.3 Nb1 Ta1 Ti1.4 Zr1.3,,,1000.0,8.1,8.088884841,BCC,,236.0,,,109.5559669,50.0,,https://doi.org/10.1016/j.dib.2018.11.111,Data in Brief 21 (2018) 2664¡V2678
Al0.3 Nb1 Ta1 Ti1.4 Zr1.3,,C,25.0,8.1,8.088884841,BCC,490.0,1965.0,2054.0,,109.5559669,5.0,,https://doi.org/10.1016/j.dib.2018.11.111,Data in Brief 21 (2018) 2664¡V2678
Al0.417 Co0.833 Cr0.833 Cu0.833 Fe0.833 Ni0.833 V1,CAST,,25.0,,7.3,BCC,579.0,,,,177.0,,,10.1007/s11661-006-0081-3,
Al0.429 Ca0.286 Li1 Mg1 Si0.143,CAST,C,25.0,1.57,1.4,,,418.0,,,,13.0,,10.3390/ma12071136,
Al0.451 Co0.451 Cr0.451 Fe0.451 Ni1,,T,-70.0,,7.1,,,570.0,1143.0,,,18.0,,10.1016/j.actamat.2016.11.016,
Al0.451 Co0.451 Cr0.451 Fe0.451 Ni1,,T,-192.0,,7.1,,,700.0,1000.0,,,9.0,,10.1016/j.actamat.2016.11.016,
Al0.465 Co0.465 Cr0.465 Fe0.465 Ni1,,T,-70.0,,7.1,,,595.0,1168.0,,,15.8,,10.1016/j.actamat.2016.11.016,
Al0.465 Co0.465 Cr0.465 Fe0.465 Ni1,,T,-192.0,,7.1,,,700.0,1000.0,,,7.0,,10.1016/j.actamat.2016.11.016,
Al0.4 Cr0.5 Cu0.5 Fe0.5 Ni1,,,25.0,,7.3,FCC,,,,,179.0,,,10.1063/1.3587228,
Al0.4 Cr1 Cu1 Fe1 Ni2,,,25.0,7.8,7.758780509,FCC,,,,,190.4548045,,,https://doi.org/10.1016/j.dib.2018.11.111,Data in Brief 21 (2018) 2664¡V2678
Al0.4 Hf0.6 Nb1 Ta1 Ti1 Zr1,,,25.0,9.1,9.088964376,BCC,,1841.0,,,107.0447572,10.0,,https://doi.org/10.1016/j.dib.2018.11.111,Data in Brief 21 (2018) 2664¡V2678
Al0.4 Hf0.6 Nb1 Ta1 Ti1 Zr1,,,800.0,9.1,9.088964376,BCC,,796.0,,,107.0447572,50.0,,https://doi.org/10.1016/j.dib.2018.11.111,Data in Brief 21 (2018) 2664¡V2678
Al0.4 Hf0.6 Nb1 Ta1 Ti1 Zr1,,,1000.0,9.1,9.088964376,BCC,,298.0,,,107.0447572,50.0,,https://doi.org/10.1016/j.dib.2018.11.111,Data in Brief 21 (2018) 2664¡V2678
Al0.4 Hf0.6 Nb1 Ta1 Ti1 Zr1,,C,25.0,9.1,9.088964376,BCC,500.0,1841.0,2269.0,,107.0447572,10.0,,https://doi.org/10.1016/j.dib.2018.11.111,Data in Brief 21 (2018) 2664¡V2678
Al0.50 Co1 Fe1 Ni1,,C,25.0,7.375,7.375241195,FCC,211.5,345.5,,,,16.5,,,Prof.Yeh-3dtransitional
Al0.511 Co0.511 Cr0.511 Fe0.511 Ni1,,T,-70.0,,7.0,,,580.0,1034.0,,,4.0,,10.1016/j.actamat.2016.11.016,
Al0.511 Co0.511 Cr0.511 Fe0.511 Ni1,,T,-192.0,,7.0,,,700.0,1000.0,,,16.5,,10.1016/j.actamat.2016.11.016,
Al0.569 Ca0.143 Li0.857 Mg1 Si0.286 Y0.003,CAST,C,25.0,1.7,1.6,,,556.0,,,,16.0,,10.3390/ma12071136,
Al0.5 B0.2 Co1 Cr1 Cu1 Fe1 Ni1,CAST,,25.0,,7.5,,415.0,,,,,,,10.1149/1.2744133,
Al0.5 B0.2 Co1 Cr1 Cu1 Fe1 Ni1,,,25.0,7.7,7.510024263,Other,415.0,,,,,,,https://doi.org/10.1016/j.dib.2018.11.111,Data in Brief 21 (2018) 2664¡V2678
Al0.5 B0.6 Co1 Cr1 Cu1 Fe1 Ni1,CAST,,25.0,,7.3,,505.0,,,,,,,10.1149/1.2744133,
Al0.5 B0.6 Co1 Cr1 Cu1 Fe1 Ni1,,,25.0,7.7,7.300611102,Other,505.0,,,,,,,https://doi.org/10.1016/j.dib.2018.11.111,Data in Brief 21 (2018) 2664¡V2678
Al0.5 B1 Co1 Cr1 Cu1 Fe1 Ni1,CAST,,25.0,,7.1,,736.0,,,,,,,10.1149/1.2744133,
Al0.5 B1 Co1 Cr1 Cu1 Fe1 Ni1,,,25.0,7.8,7.107882584,Other,736.0,,,,,,,https://doi.org/10.1016/j.dib.2018.11.111,Data in Brief 21 (2018) 2664¡V2678
Al0.5 Co1 Cr1 Cu1 Fe1,,,25.0,,7.4,FCC,207.0,,,,,,,10.3166/acsm.31.633-648,
Al0.5 Co1 Cr1 Cu1 Fe1 Ni1,CAST,,25.0,,7.6,FCC,225.0,,,,189.0,,,10.2320/matertrans.47.1395,
Al0.5 Co1 Cr1 Cu1 Fe1 Ni1,CAST,,25.0,,7.6,,300.0,,,,189.0,,,10.1149/1.2744133,
Al0.5 Co1 Cr1 Cu1 Fe1 Ni1,CAST,,,,7.6,FCC,160.0,,,,189.0,,,10.1016/j.vacuum.2018.12.009,
Al0.5 Co1 Cr1 Cu1 Fe1 Ni1,WROUGHT,T,25.0,,7.6,FCC,,1290.0,1400.0,,189.0,,,10.1016/j.jallcom.2009.10.088,
Al0.5 Co1 Cr1 Cu1 Fe1 Ni1,WROUGHT,T,25.0,,7.6,Other,,650.0,790.0,,189.0,,,10.1016/j.jallcom.2009.10.088,
Al0.5 Co1 Cr1 Cu1 Fe1 Ni1,WROUGHT,T,700.0,,7.6,FCC,,180.0,185.0,,189.0,,,10.1016/j.jallcom.2009.10.088,
Al0.5 Co1 Cr1 Cu1 Fe1 Ni1,WROUGHT,T,700.0,,7.6,Other,,160.0,180.0,,189.0,,,10.1016/j.jallcom.2009.10.088,
Al0.5 Co1 Cr1 Cu1 Fe1 Ni1,WROUGHT,T,25.0,,7.6,Other,,1284.0,1344.0,,189.0,,,10.1016/j.actamat.2015.07.004,
Al0.5 Co1 Cr1 Cu1 Fe1 Ni1,CAST,,25.0,,7.6,FCC,215.0,,,,189.0,,,10.1007/s11661-006-0081-3,
Al0.5 Co1 Cr1 Cu1 Fe1 Ni1,CAST,C,1000.0,,7.6,FCC,,150.0,,,,7.6,,10.1007/s11661-005-0218-9,
Al0.5 Co1 Cr1 Cu1 Fe1 Ni1,CAST,C,25.0,,7.6,FCC,,388.0,,,189.0,5.0,,10.1007/s11661-005-0218-9,
Al0.5 Co1 Cr1 Cu1 Fe1 Ni1,CAST,C,300.0,,7.6,FCC,,411.0,,,,27.0,,10.1007/s11661-005-0218-9,
Al0.5 Co1 Cr1 Cu1 Fe1 Ni1,CAST,C,500.0,,7.6,FCC,,421.0,,,189.0,5.0,,10.1007/s11661-005-0218-9,
Al0.5 Co1 Cr1 Cu1 Fe1 Ni1,CAST,C,700.0,,7.6,FCC,,426.0,,,,12.0,,10.1007/s11661-005-0218-9,
Al0.5 Co1 Cr1 Cu1 Fe1 Ni1,CAST,C,900.0,,7.6,FCC,,230.0,,,189.0,,,10.1007/s11661-005-0218-9,
Al0.5 Co1 Cr1 Cu1 Fe1 Ni1,CAST,C,1100.0,,7.6,FCC,,80.0,,,185.0,,,10.1007/s11661-005-0218-9,
Al0.5 Co1 Cr1 Cu1 Fe1 Ni1 Ti0.2,CAST,,25.0,,7.5,FCC,272.0,,,,182.0,,,10.2320/matertrans.47.1395,
Al0.5 Co1 Cr1 Cu1 Fe1 Ni1 Ti0.4,CAST,,25.0,,7.3,FCC,321.0,,,,,,,10.2320/matertrans.47.1395,
Al0.5 Co1 Cr1 Cu1 Fe1 Ni1 V0.2,CAST,,25.0,,7.6,FCC,204.0,,,,,,,10.1007/s11661-006-0081-3,
Al0.5 Co1 Cr1 Fe1 Mn1 Ni1,,,,,7.4,,,,,,,,,10.4028/www.scientific.net/MSF.846.13,
Al0.5 Co1 Cr1 Fe1 Ni1 Ti0.5,,C,25.0,,6.9,,,1100.0,,,,,10.0,10.1016/j.jallcom.2018.01.247,
Al0.5 Co1 Cr1 Cu1 Fe1,,,25.0,7.4,7.365893181,FCC,207.0,,,,186.7519637,,,https://doi.org/10.1016/j.dib.2018.11.111,Data in Brief 21 (2018) 2664¡V2678