FORMULA,PROPERTY: Processing method,PROPERTY: Type of test,Measuremet T (?°C),PROPERTY: Exp. Density (g/cm$^3$),PROPERTY: Calculated Density (g/cm$^3$),PROPERTY: Microstructure,PROPERTY: HV,PROPERTY: YS (MPa),PROPERTY: UTS (MPa),PROPERTY: Exp. Young modulus (GPa),PROPERTY: Calculated Young modulus (GPa),PROPERTY: Elongation (%),PROPERTY: Elongation plastic (%),Others: DOI,Others: Reference
Al0.053 Cu1 Mn1 Ni1,CAST,C,25.0,,8.3,0,166.0,330.0,,,173.0,45.0,,10.1016/j.jallcom.2015.07.285,
Al0.108 Co0.514 Cr0.514 Cu0.108 Fe0.514 Ni1,WROUGHT,T,25.0,,8.0,0,,719.0,1048.0,,209.0,30.0,,10.1016/j.msea.2017.04.111,
Al0.10 Co1 Cr1 Fe1 Mn1 Ni1,,,25.0,7.9,7.879317948,0,180.0,,,,215.7108266,,,https://doi.org/10.1016/j.dib.2018.11.111,Data in Brief 21 (2018) 2664¡V2678
Al0.133 Co1 Cr0.667 Fe0.667 Ni1 Ti0.333,ANNEAL,,25.0,,7.6,0,487.0,,,,201.0,,,10.1016/j.actamat.2011.06.041,
Al0.143 Cr0.343 Fe1 Mn0.8 Ni0.571,CAST,T,25.0,,7.5,0,,280.0,556.0,,204.0,48.0,48.2,10.1016/j.msea.2019.05.056,
Al0.143 Cr0.343 Fe1 Mn0.8 Ni0.571,CAST,T,25.0,,7.5,0,,1253.0,1392.0,,204.0,6.78,8.2,10.1016/j.msea.2019.05.056,
Al0.15 Cr0.5 Cu0.25 Fe0.5 Ni1,WROUGHT,T,25.0,,7.8,0,107.0,62.0,169.0,16.6,200.0,98.0,,10.1016/j.matchar.2019.109792,
Al0.15 Hf0.15 Nb0.3 Ti0.4,ANNEAL,C,25.0,7.07,7.062829579,2,,830.0,,,99.54532257,50.0,50.0,,Prof.Yeh-RHEA
Al0.167 Co1 Cr1 Fe1 Ni1 Ti0.083,ANNEAL,T,25.0,,7.8,0,,210.0,503.0,,214.0,70.0,,10.1016/j.actamat.2015.08.076,
Al0.195 Mo0.07 Nb0.215 Ti0.185 V0.24 Zr0.095,CAST,C,25.0,5.97,6.029984581,2,,1209.0,,,114.4923257,1.0,1.0,,Prof.Yeh-RHEA
Al0.1 Co1 Cr1 Fe1 Mn1 Ni1,CAST,,25.0,,7.9,0,180.0,,,,,,12.6,10.1016/j.actamat.2013.09.037,
Al0.1 Co1 Cr1 Fe1 Ni1,WROUGHT,T,25.0,,8.0,0,,1198.0,,,220.0,1.5,,10.1016/j.actamat.2018.12.012,
Al0.1 Co1 Cr1 Fe1 Ni1,WROUGHT,T,25.0,,8.0,0,,1403.0,,,220.0,1.2,,10.1016/j.actamat.2018.12.012,
Al0.1 Co1 Cr1 Fe1 Ni1,WROUGHT,T,25.0,,8.0,0,,711.0,928.0,,220.0,30.3,,10.1016/j.actamat.2018.12.012,
Al0.1 Co1 Cr1 Fe1 Ni1,WROUGHT,T,25.0,,8.0,0,,356.0,,,220.0,42.4,,10.1016/j.actamat.2018.12.012,
Al0.1 Co1 Cr1 Fe1 Ni1,ANNEAL,C,23.0,,7.983409687,2,,366.0,715.0,,220.2655703,46.0,,,Paper_Collection_5_element
Al0.1 Cr0.5 Cu0.5 Fe0.5 Ni1,,,25.0,,8.0,0,,,,,197.0,,,10.1063/1.3587228,
Al0.20 Co1 Cr1 Fe1 Mn1 Ni1,,T,25.0,7.7,7.739021059,0,171.0,220.0,,,211.7652315,56.0,,https://doi.org/10.1016/j.dib.2018.11.111,Data in Brief 21 (2018) 2664¡V2678
Al0.20 Co1 Cr1 Fe1 Mn1 Ni1,,C,25.0,7.735,7.739021059,0,170.5,219.5,,,211.7652315,58.0,,,Prof.Yeh-3dtransitional
Al0.225 Hf0.05 Mo0.105 Nb0.185 Ti0.175 V0.26,CAST,C,25.0,6.27,6.429196025,2,,876.0,,,124.5215411,1.0,1.0,,Prof.Yeh-RHEA
Al0.242 Co0.515 Cr0.515 Cu0.242 Fe0.515 Ni1,CAST,T,25.0,,7.7,2,,357.0,459.0,,,9.0,,10.1007/s11837-013-0756-3,
Al0.242 Co0.515 Cr0.515 Cu0.242 Fe0.515 Ni1,ANNEAL,T,25.0,,7.7,2,,365.0,365.0,,,0.1,,10.1007/s11837-013-0756-3,
Al0.245 Mo0.1 Nb0.19 Ti0.15 V0.315,CAST,C,25.0,5.87,5.907716601,2,,843.0,,,125.9258887,1.0,1.0,,Prof.Yeh-RHEA
Al0.255 Hf0.06 Nb0.205 Ti0.09 V0.34 Zr0.05,CAST,C,25.0,6.0,6.242562835,2,,1495.0,,,98.90261279,1.0,1.0,,Prof.Yeh-RHEA
Al0.25 Co0.5 Cr0.5 Cu0.5 Fe0.5 Ni0.5 V1,CAST,,25.0,,7.2,1,587.0,,,,171.0,,,10.1007/s11661-006-0081-3,
Al0.25 Co1 Cr1 Cu0.5 Fe1 Ni1 Ti0.5,CAST,,25.0,,7.4,0,,,,,192.0,,,10.1016/j.jallcom.2008.11.059,
Al0.25 Co1 Cr1 Cu0.75 Fe1 Ni1 Ti0.5,CAST,C,25.0,,7.5,0,,750.0,1970.0,103.0,189.0,,39.0,10.1016/j.jallcom.2008.11.059,
Al0.25 Co1 Cr1 Cu1 Fe1 Mn1 Ni1 Ti1 V1,CAST,C,25.0,,7.1,1,,1465.0,2016.0,190.0,174.0,2.0,,10.1016/j.msea.2006.11.049,
Al0.25 Co1 Cr1 Fe1 Ni1,ANNEAL,,25.0,,7.7,0,110.0,,,,213.0,,,10.1016/j.jallcom.2009.08.090,
Al0.25 Co1 Cr1 Fe1 Ni1,ANNEAL,,25.0,,7.7,0,113.0,,,,213.0,,,10.1016/j.jallcom.2009.08.090,
Al0.25 Co1 Fe1 Ni1,CAST,C,25.0,,7.9,0,138.0,158.0,,,192.0,,,10.1016/j.jmmm.2014.07.023,
Al0.25 Co1 Cr1 Cu0.5 Fe1 Ni1 Ti0.5,,,25.0,7.4,7.391081495,0,,,,,192.0025671,,,https://doi.org/10.1016/j.dib.2018.11.111,Data in Brief 21 (2018) 2664¡V2678
Al0.25 Co1 Cr1 Cu0.75 Fe1 Ni1 Ti0.5,,C,25.0,7.5,7.458566983,0,,750.0,1970.0,195.0,189.296876,39.0,,https://doi.org/10.1016/j.dib.2018.11.111,Data in Brief 21 (2018) 2664¡V2678
Al0.25 Co1 Cr1 Cu0.75 Fe1 Ni1 Ti0.5,,C,25.0,7.455,7.458566983,0,,750.0,,102.5,189.296876,38.5,,,Prof.Yeh-3dtransitional
Al0.25 Co1 Cr1 Fe1 Ni1,,,25.0,7.7,7.719849722,0,110.0,,,,212.7722739,,,https://doi.org/10.1016/j.dib.2018.11.111,Data in Brief 21 (2018) 2664¡V2678
Al0.25 Co1 Cr1 Fe1 Ni1,,,25.0,7.7,7.719849722,0,113.0,,,,212.7722739,,,https://doi.org/10.1016/j.dib.2018.11.111,Data in Brief 21 (2018) 2664¡V2678
Al0.25 Co1 Fe1 Ni1,,C,25.0,7.9,7.886957534,0,138.0,158.0,,,191.8170678,,,https://doi.org/10.1016/j.dib.2018.11.111,Data in Brief 21 (2018) 2664¡V2678
Al0.25 Co1 Fe1 Ni1,,C,25.0,7.885,7.886957534,0,137.5,160.5,,,191.8170678,,,,Prof.Yeh-3dtransitional
Al0.25 Cr0.417 Fe0.417 Ni1,CAST,T,25.0,,7.3,0,,441.0,757.0,,196.0,45.0,,10.1016/j.jallcom.2018.08.176,
Al0.25 Cr0.5 Nb0.5 Ti1 V0.25,CAST,C,25.0,,5.8,1,,1240.0,,,134.0,,,10.1016/j.matlet.2016.11.030,
Al0.25 Cr1 Cu1 Fe1 Ni2,,C,,,7.96333292,0,,,,,195.3236324,,,,Paper_Collection_5_element
Al0.25 Mo1 Nb1 Ti1 V1,CAST,C,25.0,,7.1,1,460.0,1250.0,1500.0,,161.0,13.0,,10.3390/e16020870,
Al0.25 Mo1 Nb1 Ti1 V1,,C,25.0,7.1,7.065041148,1,460.0,1250.0,,,160.7240221,13.0,,https://doi.org/10.1016/j.dib.2018.11.111,Data in Brief 21 (2018) 2664¡V2678
Al0.25 Mo1 Nb1 Ti1 V1,CAST,C,25.0,7.1,7.065041148,1,460.0,1250.0,,164.0,160.7240221,13.0,12.0,,Prof.Yeh-RHEA
Al0.25 Nb1 Ta1 Ti1 V1,CAST,C,25.0,,8.8,1,,1330.0,,,130.0,,,10.1016/j.proeng.2012.03.043,
Al0.25 Nb1 Ta1 Ti1 V1,,C,25.0,8.8,8.794810956,1,,1330.0,,130.0,130.4925823,,,https://doi.org/10.1016/j.dib.2018.11.111,Data in Brief 21 (2018) 2664¡V2678
Al0.25 Nb1 Ta1 Ti1 V1,CAST,C,25.0,8.8,8.794810956,1,,1330.0,,92.0,130.4925823,50.0,50.0,,Prof.Yeh-RHEA
Al0.278 Co0.556 Cr0.556 Cu0.556 Fe0.556 Ni0.556 V1,CAST,,25.0,,7.2,1,597.0,,,,172.0,,,10.1007/s11661-006-0081-3,
Al0.278 Co0.694 Cr0.222 Fe0.417 Ni1 Ti0.167,ANNEAL,T,23.0,,7.4,0,,520.0,696.0,,,,,10.3390/e21020169,
Al0.278 Co0.694 Cr0.222 Fe0.417 Ni1 Ti0.167,ANNEAL,T,600.0,,7.4,0,,470.0,561.0,,,,,10.3390/e21020169,
Al0.278 Co0.694 Cr0.222 Fe0.417 Ni1 Ti0.167,ANNEAL,T,700.0,,7.4,0,,461.0,560.0,,,12.0,,10.3390/e21020169,
Al0.278 Co0.694 Cr0.222 Fe0.417 Ni1 Ti0.167,ANNEAL,T,800.0,,7.4,0,,445.0,536.0,,,20.0,,10.3390/e21020169,
Al0.278 Co0.694 Cr0.222 Fe0.417 Ni1 Ti0.167,ANNEAL,T,900.0,,7.4,0,,219.0,312.0,,,18.0,,10.3390/e21020169,
Al0.278 Co0.694 Cr0.222 Fe0.417 Ni1 Ti0.167,ANNEAL,T,23.0,,7.4,0,,627.0,1197.0,,,11.0,,10.3390/e21020169,
Al0.278 Co0.694 Cr0.222 Fe0.417 Ni1 Ti0.167,ANNEAL,T,600.0,,7.4,0,,594.0,1006.0,,185.0,49.0,,10.3390/e21020169,
Al0.278 Co0.694 Cr0.222 Fe0.417 Ni1 Ti0.167,ANNEAL,T,700.0,,7.4,0,,547.0,840.0,,185.0,11.0,,10.3390/e21020169,
Al0.278 Co0.694 Cr0.222 Fe0.417 Ni1 Ti0.167,ANNEAL,T,800.0,,7.4,0,,399.0,575.0,,185.0,9.0,,10.3390/e21020169,
Al0.278 Co0.694 Cr0.222 Fe0.417 Ni1 Ti0.167,ANNEAL,T,900.0,,7.4,0,,243.0,319.0,,185.0,6.0,,10.3390/e21020169,
Al0.286 Cr0.343 Fe1 Mn0.657 Ni0.571,WROUGHT,T,25.0,,7.2,0,,320.0,625.0,,195.0,42.2,42.45,10.1016/j.msea.2019.05.056,
Al0.286 Cr0.343 Fe1 Mn0.657 Ni0.571,WROUGHT,T,25.0,,7.2,0,,1400.0,1500.0,,195.0,5.83,7.85,10.1016/j.msea.2019.05.056,
Al0.2 Co1.5 Cr1 Fe1 Ni1.5 Ti0.5,,,25.0,7.6,7.551427889,0,487.0,,,,200.778353,,,https://doi.org/10.1016/j.dib.2018.11.111,Data in Brief 21 (2018) 2664¡V2678
Al0.2 Co1 Cr1 Fe1 Mn1 Ni1,CAST,T,25.0,,7.7,0,171.0,220.0,,,212.0,56.0,,10.1016/j.actamat.2013.09.037,
Al0.2 Cr0.5 Cu0.5 Fe0.5 Ni1,,,25.0,,7.8,0,,,,,190.0,,,10.1063/1.3587228,
Al0.2 Cr1 Cu1 Fe1 Ni2,,,25.0,8.0,8.035241948,0,,,,,197.0352363,,,https://doi.org/10.1016/j.dib.2018.11.111,Data in Brief 21 (2018) 2664¡V2678
Al0.2 Mo1 Ta1 Ti1 V1,CAST,C,25.0,,9.3,1,,1021.0,1249.0,,183.0,,,10.4028/www.scientific.net/MSF.898.638,
Al0.304 Co1 Cr1 Fe1 Ni1,WROUGHT,,,,7.6,0,,,,,,48.0,,10.1016/j.scriptamat.2016.06.019,
Al0.304 Co1 Cr1 Fe1 Ni1,CAST,C,25.0,,7.6,0,,,,,210.0,87.0,,10.1016/j.msea.2015.02.072,
Al0.304 Co1 Cr1 Fe1 Ni1,,T,25.0,,7.6,0,,260.0,620.0,,,,,10.1016/j.matlet.2017.04.072,
Al0.304 Co1 Cr1 Fe1 Ni1,WROUGHT,T,25.0,,7.6,0,,159.0,410.0,,,43.0,,10.1016/j.matdes.2017.02.072,
Al0.304 Co1 Cr1 Fe1 Ni1,WROUGHT,T,25.0,,7.6,0,,263.0,589.0,,,45.0,,10.1016/j.matdes.2017.02.072,
Al0.304 Co1 Cr1 Fe1 Ni1,ANNEAL,,,,7.6,0,,,,,,44.0,,10.1016/j.jallcom.2013.11.084,
Al0.312 Co0.625 Cr0.625 Cu0.625 Fe0.625 Ni0.625 V1,CAST,,25.0,,7.2,1,594.0,,,,174.0,,,10.1007/s11661-006-0081-3,
Al0.333 Co0.333 Cu0.333 Fe0.333 Ni1,CAST,C,25.0,,7.5,0,279.6,268.0,,,167.0,,,10.1016/j.jmst.2018.12.014,
Al0.333 Cr0.667 Fe1 Mn0.667 Ni0.333,CAST,,25.0,,7.0,1,396.0,,,,201.0,,,10.1016/j.msea.2010.05.052,
Al0.335 Hf0.055 Nb0.195 Ti0.1 V0.315,CAST,C,25.0,5.64,5.847325423,2,,702.0,,,98.4020848,1.0,1.0,,Prof.Yeh-RHEA
Al0.357 Co0.714 Cr0.714 Cu0.714 Fe0.714 Ni0.714 V1,CAST,,25.0,,7.3,1,577.0,,,,175.0,,,10.1007/s11661-006-0081-3,
Al0.375 Co1 Cr1 Fe1 Ni1,ANNEAL,,25.0,,7.5,0,131.0,,,,207.0,,,10.1016/j.jallcom.2009.08.090,
Al0.375 Co1 Cr1 Fe1 Ni1,ANNEAL,,25.0,,7.5,0,196.0,,,,207.0,,,10.1016/j.jallcom.2009.08.090,
Al0.375 Co1 Cr1 Fe1 Ni1,,,25.0,7.5,7.519494797,0,131.0,,,,207.0759655,,,https://doi.org/10.1016/j.dib.2018.11.111,Data in Brief 21 (2018) 2664¡V2678
Al0.375 Co1 Cr1 Fe1 Ni1,,,25.0,7.5,7.519494797,0,196.0,,,,207.0759655,,,https://doi.org/10.1016/j.dib.2018.11.111,Data in Brief 21 (2018) 2664¡V2678
Al0.38 Co1 Cr1 Fe1 Mn1 Ni1,CAST,T,25.0,,7.5,0,182.0,244.0,,,205.0,45.0,,10.1016/j.actamat.2013.09.037,
Al0.38 Co1 Cr1 Fe1 Mn1 Ni1,,T,25.0,7.5,7.50474373,0,182.0,244.0,,,205.1766073,45.0,,https://doi.org/10.1016/j.dib.2018.11.111,Data in Brief 21 (2018) 2664¡V2678
Al0.38 Co1 Cr1 Fe1 Mn1 Ni1,,C,25.0,7.505,7.50474373,0,181.5,243.5,,,205.1766073,46.0,,,Prof.Yeh-3dtransitional
Al0.3 Co1 Cr1 Cu1 Fe1,,,25.0,,7.7,0,180.0,,,,194.0,,,10.3166/acsm.31.633-648,
Al0.3 Co1 Cr1 Fe1 Mo0.1 Ni1,,,,,7.7,0,200.0,,,,214.0,,,10.1016/j.jallcom.2010.02.032,
Al0.3 Co1 Cr1 Fe1 Ni1,CAST,C,300.0,,7.6,0,132.0,,,,,25.0,,10.1088/2053-1591/ab0597,
Al0.3 Co1 Cr1 Fe1 Ni1,CAST,C,340.0,,7.6,0,147.0,,,,210.0,,,10.1088/2053-1591/ab0597,
Al0.3 Co1 Cr1 Fe1 Ni1,CAST,C,430.0,,7.6,0,165.0,,,,,65.0,,10.1088/2053-1591/ab0597,
Al0.3 Co1 Cr1 Fe1 Ni1,CAST,,,,7.6,0,117.0,,,,210.0,,,10.1016/j.matdes.2019.107698,
Al0.3 Co1 Cr1 Fe1 Ni1,,,,,7.6,0,160.0,,,,210.0,,,10.1016/j.jallcom.2010.02.032,
Al0.3 Co1 Cr1 Fe1 Ni1,WROUGHT,T,25.0,,7.6,0,,159.0,410.0,,210.0,,,10.1016/j.actamat.2018.12.010,
Al0.3 Co1 Cr1 Cu1 Fe1,,,25.0,7.7,7.666069343,0,180.0,,,,194.2601286,,,https://doi.org/10.1016/j.dib.2018.11.111,Data in Brief 21 (2018) 2664¡V2678
Al0.3 Co1 Cr1 Cu1 Fe1 Ni1,,,25.0,7.9,7.882943926,0,180.0,,,,195.2637304,,,https://doi.org/10.1016/j.dib.2018.11.111,Data in Brief 21 (2018) 2664¡V2678
Al0.3 Cr0.5 Cu0.5 Fe0.5 Ni1,,,25.0,,7.5,0,,,,,185.0,,,10.1063/1.3587228,
Al0.3 Hf1 Nb1 Ta1 Ti1 Zr1,CAST,C,25.0,,9.5,1,353.0,1188.0,,63.0,105.0,50.0,,10.1016/j.jallcom.2014.11.064,
Al0.3 Hf1 Nb1 Ta1 Ti1 Zr1,,C,25.0,9.6,9.549692921,1,353.0,1188.0,,108.0,105.1476585,50.0,,https://doi.org/10.1016/j.dib.2018.11.111,Data in Brief 21 (2018) 2664¡V2678
Al0.3 Hf1 Nb1 Ta1 Ti1 Zr1,CAST,C,25.0,9.5,9.549692921,1,353.0,1188.0,,63.0,105.1476585,50.0,50.0,,Prof.Yeh-RHEA
Al0.3 Nb1 Ta0.8 Ti1.4 V0.2 Zr1.3,,,25.0,7.7,7.706514339,1,,1965.0,,,107.1964186,5.0,,https://doi.org/10.1016/j.dib.2018.11.111,Data in Brief 21 (2018) 2664¡V2678
Al0.3 Nb1 Ta0.8 Ti1.4 V0.2 Zr1.3,,,800.0,7.7,7.706514339,1,,678.0,,,107.1964186,50.0,,https://doi.org/10.1016/j.dib.2018.11.111,Data in Brief 21 (2018) 2664¡V2678
Al0.3 Nb1 Ta0.8 Ti1.4 V0.2 Zr1.3,,,1000.0,7.7,7.706514339,1,,166.0,,,107.1964186,50.0,,https://doi.org/10.1016/j.dib.2018.11.111,Data in Brief 21 (2018) 2664¡V2678
Al0.3 Nb1 Ta0.8 Ti1.4 V0.2 Zr1.3,,C,25.0,7.7,7.706514339,1,500.0,1965.0,2061.0,,107.1964186,5.0,,https://doi.org/10.1016/j.dib.2018.11.111,Data in Brief 21 (2018) 2664¡V2678
Al0.3 Nb1 Ta1 Ti1.4 Zr1.3,,,25.0,8.1,8.088884841,1,,1965.0,,,109.5559669,5.0,,https://doi.org/10.1016/j.dib.2018.11.111,Data in Brief 21 (2018) 2664¡V2678
Al0.3 Nb1 Ta1 Ti1.4 Zr1.3,,,800.0,8.1,8.088884841,1,,362.0,,,109.5559669,50.0,,https://doi.org/10.1016/j.dib.2018.11.111,Data in Brief 21 (2018) 2664¡V2678
Al0.3 Nb1 Ta1 Ti1.4 Zr1.3,,,1000.0,8.1,8.088884841,1,,236.0,,,109.5559669,50.0,,https://doi.org/10.1016/j.dib.2018.11.111,Data in Brief 21 (2018) 2664¡V2678
Al0.3 Nb1 Ta1 Ti1.4 Zr1.3,,C,25.0,8.1,8.088884841,1,490.0,1965.0,2054.0,,109.5559669,5.0,,https://doi.org/10.1016/j.dib.2018.11.111,Data in Brief 21 (2018) 2664¡V2678
Al0.417 Co0.833 Cr0.833 Cu0.833 Fe0.833 Ni0.833 V1,CAST,,25.0,,7.3,1,579.0,,,,177.0,,,10.1007/s11661-006-0081-3,
Al0.4 Cr0.5 Cu0.5 Fe0.5 Ni1,,,25.0,,7.3,0,,,,,179.0,,,10.1063/1.3587228,
Al0.4 Cr1 Cu1 Fe1 Ni2,,,25.0,7.8,7.758780509,0,,,,,190.4548045,,,https://doi.org/10.1016/j.dib.2018.11.111,Data in Brief 21 (2018) 2664¡V2678
Al0.4 Hf0.6 Nb1 Ta1 Ti1 Zr1,,,25.0,9.1,9.088964376,1,,1841.0,,,107.0447572,10.0,,https://doi.org/10.1016/j.dib.2018.11.111,Data in Brief 21 (2018) 2664¡V2678
Al0.4 Hf0.6 Nb1 Ta1 Ti1 Zr1,,,800.0,9.1,9.088964376,1,,796.0,,,107.0447572,50.0,,https://doi.org/10.1016/j.dib.2018.11.111,Data in Brief 21 (2018) 2664¡V2678
Al0.4 Hf0.6 Nb1 Ta1 Ti1 Zr1,,,1000.0,9.1,9.088964376,1,,298.0,,,107.0447572,50.0,,https://doi.org/10.1016/j.dib.2018.11.111,Data in Brief 21 (2018) 2664¡V2678
Al0.4 Hf0.6 Nb1 Ta1 Ti1 Zr1,,C,25.0,9.1,9.088964376,1,500.0,1841.0,2269.0,,107.0447572,10.0,,https://doi.org/10.1016/j.dib.2018.11.111,Data in Brief 21 (2018) 2664¡V2678
Al0.50 Co1 Fe1 Ni1,,C,25.0,7.375,7.375241195,0,211.5,345.5,,,,16.5,,,Prof.Yeh-3dtransitional
Al0.5 B0.2 Co1 Cr1 Cu1 Fe1 Ni1,,,25.0,7.7,7.510024263,2,415.0,,,,,,,https://doi.org/10.1016/j.dib.2018.11.111,Data in Brief 21 (2018) 2664¡V2678
Al0.5 B0.6 Co1 Cr1 Cu1 Fe1 Ni1,,,25.0,7.7,7.300611102,2,505.0,,,,,,,https://doi.org/10.1016/j.dib.2018.11.111,Data in Brief 21 (2018) 2664¡V2678
Al0.5 B1 Co1 Cr1 Cu1 Fe1 Ni1,,,25.0,7.8,7.107882584,2,736.0,,,,,,,https://doi.org/10.1016/j.dib.2018.11.111,Data in Brief 21 (2018) 2664¡V2678
Al0.5 Co1 Cr1 Cu1 Fe1,,,25.0,,7.4,0,207.0,,,,,,,10.3166/acsm.31.633-648,
Al0.5 Co1 Cr1 Cu1 Fe1 Ni1,CAST,,25.0,,7.6,0,225.0,,,,189.0,,,10.2320/matertrans.47.1395,
Al0.5 Co1 Cr1 Cu1 Fe1 Ni1,CAST,,,,7.6,0,160.0,,,,189.0,,,10.1016/j.vacuum.2018.12.009,
Al0.5 Co1 Cr1 Cu1 Fe1 Ni1,WROUGHT,T,25.0,,7.6,0,,1290.0,1400.0,,189.0,,,10.1016/j.jallcom.2009.10.088,
Al0.5 Co1 Cr1 Cu1 Fe1 Ni1,WROUGHT,T,25.0,,7.6,2,,650.0,790.0,,189.0,,,10.1016/j.jallcom.2009.10.088,
Al0.5 Co1 Cr1 Cu1 Fe1 Ni1,WROUGHT,T,700.0,,7.6,0,,180.0,185.0,,189.0,,,10.1016/j.jallcom.2009.10.088,
Al0.5 Co1 Cr1 Cu1 Fe1 Ni1,WROUGHT,T,700.0,,7.6,2,,160.0,180.0,,189.0,,,10.1016/j.jallcom.2009.10.088,
Al0.5 Co1 Cr1 Cu1 Fe1 Ni1,WROUGHT,T,25.0,,7.6,2,,1284.0,1344.0,,189.0,,,10.1016/j.actamat.2015.07.004,
Al0.5 Co1 Cr1 Cu1 Fe1 Ni1,CAST,,25.0,,7.6,0,215.0,,,,189.0,,,10.1007/s11661-006-0081-3,
Al0.5 Co1 Cr1 Cu1 Fe1 Ni1,CAST,C,1000.0,,7.6,0,,150.0,,,,7.6,,10.1007/s11661-005-0218-9,
Al0.5 Co1 Cr1 Cu1 Fe1 Ni1,CAST,C,25.0,,7.6,0,,388.0,,,189.0,5.0,,10.1007/s11661-005-0218-9,
Al0.5 Co1 Cr1 Cu1 Fe1 Ni1,CAST,C,300.0,,7.6,0,,411.0,,,,27.0,,10.1007/s11661-005-0218-9,
Al0.5 Co1 Cr1 Cu1 Fe1 Ni1,CAST,C,500.0,,7.6,0,,421.0,,,189.0,5.0,,10.1007/s11661-005-0218-9,
Al0.5 Co1 Cr1 Cu1 Fe1 Ni1,CAST,C,700.0,,7.6,0,,426.0,,,,12.0,,10.1007/s11661-005-0218-9,
Al0.5 Co1 Cr1 Cu1 Fe1 Ni1,CAST,C,900.0,,7.6,0,,230.0,,,189.0,,,10.1007/s11661-005-0218-9,
Al0.5 Co1 Cr1 Cu1 Fe1 Ni1,CAST,C,1100.0,,7.6,0,,80.0,,,185.0,,,10.1007/s11661-005-0218-9,
Al0.5 Co1 Cr1 Cu1 Fe1 Ni1 Ti0.2,CAST,,25.0,,7.5,0,272.0,,,,182.0,,,10.2320/matertrans.47.1395,
Al0.5 Co1 Cr1 Cu1 Fe1 Ni1 Ti0.4,CAST,,25.0,,7.3,0,321.0,,,,,,,10.2320/matertrans.47.1395,
Al0.5 Co1 Cr1 Cu1 Fe1 Ni1 V0.2,CAST,,25.0,,7.6,0,204.0,,,,,,,10.1007/s11661-006-0081-3,
Al0.5 Co1 Cr1 Cu1 Fe1,,,25.0,7.4,7.365893181,0,207.0,,,,186.7519637,,,https://doi.org/10.1016/j.dib.2018.11.111,Data in Brief 21 (2018) 2664¡V2678
Al0.5 Co1 Cr1 Cu1 Fe1 Ni1,,,1000.0,7.6,7.621679625,0,,150.0,,,188.9516251,,,https://doi.org/10.1016/j.dib.2018.11.111,Data in Brief 21 (2018) 2664¡V2678
Al0.5 Co1 Cr1 Cu1 Fe1 Ni1,,,25.0,7.6,7.621679625,0,,388.0,,,188.9516251,,,https://doi.org/10.1016/j.dib.2018.11.111,Data in Brief 21 (2018) 2664¡V2678
Al0.5 Co1 Cr1 Cu1 Fe1 Ni1,,,300.0,7.6,7.621679625,0,,411.0,,,188.9516251,,,https://doi.org/10.1016/j.dib.2018.11.111,Data in Brief 21 (2018) 2664¡V2678
Al0.5 Co1 Cr1 Cu1 Fe1 Ni1,,,500.0,7.6,7.621679625,0,,421.0,,,188.9516251,,,https://doi.org/10.1016/j.dib.2018.11.111,Data in Brief 21 (2018) 2664¡V2678
Al0.5 Co1 Cr1 Cu1 Fe1 Ni1,,,700.0,7.6,7.621679625,0,,426.0,,,188.9516251,,,https://doi.org/10.1016/j.dib.2018.11.111,Data in Brief 21 (2018) 2664¡V2678
Al0.5 Co1 Cr1 Cu1 Fe1 Ni1,,,900.0,7.6,7.621679625,0,,230.0,,,188.9516251,,,https://doi.org/10.1016/j.dib.2018.11.111,Data in Brief 21 (2018) 2664¡V2678
Al0.5 Co1 Cr1 Cu1 Fe1 Ni1,,,1100.0,7.6,7.621679625,0,,80.0,,,188.9516251,,,https://doi.org/10.1016/j.dib.2018.11.111,Data in Brief 21 (2018) 2664¡V2678
Al0.5 Co1 Cr1 Cu1 Fe1 Ni1,,C,25.0,7.6,7.621679625,0,210.0,388.0,,,188.9516251,,,https://doi.org/10.1016/j.dib.2018.11.111,Data in Brief 21 (2018) 2664¡V2678
Al0.5 Co1 Cr1 Cu1 Fe1 Ni1,,,25.0,7.6,7.621679625,2,300.0,,,,188.9516251,,,https://doi.org/10.1016/j.dib.2018.11.111,Data in Brief 21 (2018) 2664¡V2678
Al0.5 Co1 Cr1 Cu1 Fe1 Ni1,,,25.0,7.6,7.621679625,0,225.0,,,,188.9516251,,,https://doi.org/10.1016/j.dib.2018.11.111,Data in Brief 21 (2018) 2664¡V2678
Al0.5 Co1 Cr1 Cu1 Fe1 Ni1,,,25.0,7.6,7.621679625,0,215.0,,,,188.9516251,,,https://doi.org/10.1016/j.dib.2018.11.111,Data in Brief 21 (2018) 2664¡V2678
Al0.5 Co1 Cr1 Cu1 Fe1 Ni1,,C,25.0,7.625,7.621679625,0,210.0,388.0,,,188.9516251,,,,Prof.Yeh-3dtransitional
Al0.5 Co1 Cr1 Cu1 Fe1 Ni1 Ti0.2,,,25.0,7.5,7.462763984,0,272.0,,,,185.2393228,,,https://doi.org/10.1016/j.dib.2018.11.111,Data in Brief 21 (2018) 2664¡V2678
Al0.5 Co1 Cr1 Cu1 Fe1 Ni1 Ti0.4,,,25.0,7.3,7.319238709,0,321.0,,,,181.8865426,,,https://doi.org/10.1016/j.dib.2018.11.111,Data in Brief 21 (2018) 2664¡V2678
Al0.5 Co1 Cr1 Cu1 Fe1 Ni1 V0.2,,,25.0,7.6,7.56136684,0,204.0,,,,186.4990569,,,https://doi.org/10.1016/j.dib.2018.11.111,Data in Brief 21 (2018) 2664¡V2678
Al0.5 Co1 Cr1 Cu1 Fe1 Ni1 V1.2,,,25.0,7.3,7.320414388,1,579.0,,,,176.7009301,,,https://doi.org/10.1016/j.dib.2018.11.111,Data in Brief 21 (2018) 2664¡V2678
Al0.5 Co1 Cr1 Cu1 Fe1 Ni1 V1.4,,,25.0,7.3,7.281595783,1,577.0,,,,175.1224045,,,https://doi.org/10.1016/j.dib.2018.11.111,Data in Brief 21 (2018) 2664¡V2678
Al0.5 Co1 Cr1 Cu1 Fe1 Ni1 V1.6,,,25.0,7.2,7.245214601,1,594.0,,,,173.6429946,,,https://doi.org/10.1016/j.dib.2018.11.111,Data in Brief 21 (2018) 2664¡V2678
Al0.5 Co1 Cr1 Cu1 Fe1 Ni1 V1.8,,,25.0,7.2,7.211048262,1,597.0,,,,172.2536494,,,https://doi.org/10.1016/j.dib.2018.11.111,Data in Brief 21 (2018) 2664¡V2678
Al0.5 Co1 Cr1 Cu1 Fe1 Ni1 V2.0,,,25.0,7.2,7.178900485,1,587.0,,,,170.9463874,,,https://doi.org/10.1016/j.dib.2018.11.111,Data in Brief 21 (2018) 2664¡V2678
Al0.5 Cr1 Cu1 Fe1 Ni1,CAST,,,,7.4,0,226.0,,,,185.0,,,10.1007/s11665-018-3822-8,
Al0.5 Cr1 Cu1 Fe1 Ni1,WROUGHT,,,,7.4,0,287.0,,,,185.0,,,10.1007/s11665-018-3822-8,
Al0.5 Cr1 Cu1 Fe1 Ni2,,C,,,7.631019169,0,,,,,187.4137844,,,,Paper_Collection_5_element
Al0.5 Cr1 Fe1.5 Mn1 Ni0.5,,,25.0,7.0,6.969236476,1,396.0,,,,200.6999403,,,https://doi.org/10.1016/j.dib.2018.11.111,Data in Brief 21 (2018) 2664¡V2678
Al0.5 Hf1 Nb1 Ta1 Ti1 Zr1,CAST,C,25.0,,9.3,1,396.0,1302.0,,97.0,104.0,46.0,,10.1016/j.jallcom.2014.11.064,
Al0.5 Hf1 Nb1 Ta1 Ti1 Zr1,,C,25.0,9.3,9.338160378,1,396.0,1302.0,,107.0,104.0625193,46.0,,https://doi.org/10.1016/j.dib.2018.11.111,Data in Brief 21 (2018) 2664¡V2678
Al0.5 Hf1 Nb1 Ta1 Ti1 Zr1,CAST,C,25.0,9.34,9.338160378,1,396.0,1302.0,,97.0,104.0625193,46.0,46.0,,Prof.Yeh-RHEA
Al0.5 Mo1 Nb1 Ti1 V1,CAST,C,25.0,,6.8,1,487.0,1625.0,1800.0,,156.0,11.0,,10.3390/e16020870,
Al0.5 Mo1 Nb1 Ti1 V1,,C,25.0,6.8,6.817877503,1,487.0,1625.0,,,155.5890876,11.0,,https://doi.org/10.1016/j.dib.2018.11.111,Data in Brief 21 (2018) 2664¡V2678
Al0.5 Mo1 Nb1 Ti1 V1,CAST,C,25.0,6.8,6.817877503,1,487.0,1625.0,,158.0,155.5890876,11.0,11.0,,Prof.Yeh-RHEA