FORMULA,Process Method,Measurement Method,Measuremet T (?°C),Structure: Exp Density (g/cm^3),Structure: Calculated Density (g/cm^3),Structure: Microstructure,Mechanics: Hardness (HV),Mechanics: Yield strength (MPa),Mechanics: Ultra tensle strength (MPa),Mechanics: Exp Young modulus (GPa),Mechanics: Calculated Young modulus (GPa),Mechanics: Fracture Elongation (%),Mechanics: Plastic Elongation (%),Others: DOI,Others: Reference
Al1Co1Cu1Fe1Ni1Zr1,,,25,6.9,6.90021627,FCC+BCC+Sec.,472,,,,131.8119658,,,https://doi.org/10.1016/j.dib.2018.11.111,Data in Brief 21 (2018) 2664¡V2678
Al1Co1Fe1Ni1,,C,25,6.6,6.604716099,BCC,456,964,,,161.7140033,,,https://doi.org/10.1016/j.dib.2018.11.111,Data in Brief 21 (2018) 2664¡V2678
Al1Co1Fe1Ni1Ti1V1Zr1,,,25,6.2,6.165887156,BCC,790,,,,128.8580452,,,https://doi.org/10.1016/j.dib.2018.11.111,Data in Brief 21 (2018) 2664¡V2678
Al1Cr0.5Nb1Ti1V1,,C,25,5.6,5.637471918,BCC,,1300,1430,,118.5332335,1,,https://doi.org/10.1016/j.dib.2018.11.111,Data in Brief 21 (2018) 2664¡V2678
Al1Cr0.5Nb1Ti1V1,ANNEAL,C,25,5.6,5.637471918,BCC,,1300,1430,124,118.5332335,1,1,,Prof.Yeh-RHEA
Al1Cr1.5Nb1Ti1V1,,C,25,5.9,5.85939703,FCC+Sec.,,1700,1700,,141.4457391,1,,https://doi.org/10.1016/j.dib.2018.11.111,Data in Brief 21 (2018) 2664¡V2678
Al1Cr1.5Nb1Ti1V1,ANNEAL,C,25,5.9,5.85939703,BCC+Laves,,1700,1700,,141.4457391,1,1,,Prof.Yeh-RHEA
Al1Cr1Cu1Fe1Ni1,,,25,6.8,6.761231946,FCC+BCC,495,,,,169.7911625,,,https://doi.org/10.1016/j.dib.2018.11.111,Data in Brief 21 (2018) 2664¡V2678
Al1Cr1Cu1Fe1Ni1,,,25,6.8,6.761231946,FCC+BCC,342,,,,169.7911625,,,https://doi.org/10.1016/j.dib.2018.11.111,Data in Brief 21 (2018) 2664¡V2678
Al1Cr1Cu1Fe1Ni0.6,,,25,6.6,6.601420942,FCC+BCC,496,,,,167.5406964,,,https://doi.org/10.1016/j.dib.2018.11.111,Data in Brief 21 (2018) 2664¡V2678
Al1Cr1Cu1Fe1Ni0.8,,,25,6.7,6.684195918,FCC+BCC,486,,,,168.7063375,,,https://doi.org/10.1016/j.dib.2018.11.111,Data in Brief 21 (2018) 2664¡V2678
Al1Cr1Cu1Fe1Ni1.2,,,25,6.8,6.833105867,FCC+BCC,407,,,,170.8032945,,,https://doi.org/10.1016/j.dib.2018.11.111,Data in Brief 21 (2018) 2664¡V2678
Al1Cr1Cu1Fe1Ni1.4,,,25,6.9,6.900319722,FCC+BCC,367,,,,171.7498032,,,https://doi.org/10.1016/j.dib.2018.11.111,Data in Brief 21 (2018) 2664¡V2678
Al1Cr1Cu1Fe1Ni2,,,25,7.1,7.078131329,FCC+BCC,,,,,174.2537548,,,https://doi.org/10.1016/j.dib.2018.11.111,Data in Brief 21 (2018) 2664¡V2678
Al1Cr1Cu1Fe1Ni2,,C,,,7.078131329,FCC+B2,,,,,174.2537548,,,,Paper_Collection_5_element
Al1Cr1Cu1Fe1Ni1Ti1,,C,25,6.3,6.266523605,BCC+Sec.,,,1219,,158.0291821,,,https://doi.org/10.1016/j.dib.2018.11.111,Data in Brief 21 (2018) 2664¡V2678
Al1Cr1Fe1Ni1,,C,25,6.3,6.260628877,BCC,472,1406,2927,,178.9440311,29,,https://doi.org/10.1016/j.dib.2018.11.111,Data in Brief 21 (2018) 2664¡V2678
Al1Cr1Fe1Ni1,,C,25,6.262,6.260628877,BCC,472.5,1410,,,178.9440311,28.5,,,Prof.Yeh-3dtransitional
Al1Cr1Fe1Ni1Mo1,,,25,7.2,7.184314684,BCC+Sec.,905,,,,213.8788781,,,https://doi.org/10.1016/j.dib.2018.11.111,Data in Brief 21 (2018) 2664¡V2678
Al1Cr1Fe1Ni1Mo0.2,,C,25,6.5,6.487648344,BCC,549,1487,3222,,187.5301653,29,,https://doi.org/10.1016/j.dib.2018.11.111,Data in Brief 21 (2018) 2664¡V2678
Al1Cr1Fe1Ni1Mo0.2,,C,25,6.485,6.487648344,BCC,548.5,1490,,,187.5301653,28.7,,,Prof.Yeh-3dtransitional
Al1Cr1Fe1Ni1Mo0.5,,C,25,6.8,6.783315691,BCC,622,1749,2644,,198.7126404,13,,https://doi.org/10.1016/j.dib.2018.11.111,Data in Brief 21 (2018) 2664¡V2678
Al1Cr1Fe1Ni1Mo0.5,,C,25,,6.783315691,BCC+Sec.,623.7,1914.1,4024,,198.7126404,27.9,,https://doi.org/10.1016/j.dib.2018.11.111,Data in Brief 21 (2018) 2664¡V2678
Al1Cr1Fe1Ni1Mo0.5,,C,25,6.785,6.783315691,BCC,621.5,1750,,,198.7126404,12.6,,,Prof.Yeh-3dtransitional
Al1Cr1Fe1Ni1Mo0.5Ti0.25,,C,25,,6.624484804,BCC+Sec.,712,2161.7,3642,,192.9621014,14.3,,https://doi.org/10.1016/j.dib.2018.11.111,Data in Brief 21 (2018) 2664¡V2678
Al1Cr1Fe1Ni1Mo0.5Ti0.4,,C,25,,6.539362671,BCC+Sec.,731.9,2185.1,3673,,189.8802188,14.8,,https://doi.org/10.1016/j.dib.2018.11.111,Data in Brief 21 (2018) 2664¡V2678
Al1Cr1Fe1Ni1Mo0.5Ti0.5,,C,25,,6.486303485,BCC+Sec.,751.7,2228.7,3166,,187.9591887,10.4,,https://doi.org/10.1016/j.dib.2018.11.111,Data in Brief 21 (2018) 2664¡V2678
Al1Cr1Fe1Ni1Mo0.5Ti0.6,,C,25,,6.435933656,BCC+Sec.,756.1,1314.5,1314,,186.1355278,,,https://doi.org/10.1016/j.dib.2018.11.111,Data in Brief 21 (2018) 2664¡V2678
Al1Cr1Fe1Ni1Mo0.5Ti0.75,,C,25,,6.36499056,BCC+Sec.,766.2,618.8,619,,183.5670032,,,https://doi.org/10.1016/j.dib.2018.11.111,Data in Brief 21 (2018) 2664¡V2678
Al1Cr1Fe1Ni1Mo0.8,,C,25,7,7.035665086,BCC+Sec.,854,1513,1513,,208.2567814,1,,https://doi.org/10.1016/j.dib.2018.11.111,Data in Brief 21 (2018) 2664¡V2678
Al1Cr1Fe1Ni1Mo0.8,,C,25,7.035,7.035665086,BCC+Sec.,853.5,1510,,,208.2567814,0.1,,,Prof.Yeh-3dtransitional
Al1Cr1Mo1Nb1Ti1,,,25,6.6,6.565952966,BCC,,,,,170.0203827,,,https://doi.org/10.1016/j.dib.2018.11.111,Data in Brief 21 (2018) 2664¡V2678
Al1Cr1Mo1Nb1Ti1,,,400,6.6,6.565952966,BCC,,1080,,,170.0203827,2,,https://doi.org/10.1016/j.dib.2018.11.111,Data in Brief 21 (2018) 2664¡V2678
Al1Cr1Mo1Nb1Ti1,,,600,6.6,6.565952966,BCC,,1060,,,170.0203827,3,,https://doi.org/10.1016/j.dib.2018.11.111,Data in Brief 21 (2018) 2664¡V2678
Al1Cr1Mo1Nb1Ti1,,,800,6.6,6.565952966,BCC,,860,,,170.0203827,2,,https://doi.org/10.1016/j.dib.2018.11.111,Data in Brief 21 (2018) 2664¡V2678
Al1Cr1Mo1Nb1Ti1,,,1000,6.6,6.565952966,BCC,,594,,,170.0203827,15,,https://doi.org/10.1016/j.dib.2018.11.111,Data in Brief 21 (2018) 2664¡V2678
Al1Cr1Mo1Nb1Ti1,,,1200,6.6,6.565952966,BCC,,105,,,170.0203827,24,,https://doi.org/10.1016/j.dib.2018.11.111,Data in Brief 21 (2018) 2664¡V2678
Al1Cr1Mo1Ti1,ANNEAL,C,25,6.64,5.980795667,BCC,,1060,,,188.9242953,,,,Prof.Yeh-RHEA
Al1Cr1Nb1Ti1V1,,C,25,5.8,5.756965517,BCC+Sec.,,1550,1570,,130.870268,1,,https://doi.org/10.1016/j.dib.2018.11.111,Data in Brief 21 (2018) 2664¡V2678
Al1Cr1Nb1Ti1V1,ANNEAL,C,25,5.8,5.756965517,BCC+Laves,,1550,1570,,130.870268,1,1,,Prof.Yeh-RHEA
Al1Cu0.2Li0.5Mg1Zn0.5,,,25,2.7,2.743501824,Other,,,,,55.91035824,,,https://doi.org/10.1016/j.dib.2018.11.111,Data in Brief 21 (2018) 2664¡V2678
Al1Cu0.5Li0.5Mg1Sn0.2,,,25,3,2.954533092,Other,,,,,53.23658334,,,https://doi.org/10.1016/j.dib.2018.11.111,Data in Brief 21 (2018) 2664¡V2678
Al1Cu1Fe1Ni1Ti1,,C,25,6.1,6.105067309,FCC,516,1074,1617,145,136.9184166,8,,https://doi.org/10.1016/j.dib.2018.11.111,Data in Brief 21 (2018) 2664¡V2678
Al1Cu1Fe1Ni1Ti1,,C,25,6.105,6.105067309,BCC,516,1070,,146,136.9184166,8.2,,,Prof.Yeh-3dtransitional
Al1Cu1Ni1Ti1,,C,25,5.7,5.739310967,FCC,537,300,536,129,121.62318,,,https://doi.org/10.1016/j.dib.2018.11.111,Data in Brief 21 (2018) 2664¡V2678
Al1Cu1Ni1Ti1,,C,25,5.745,5.739310967,FCC,537,300,,108,121.62318,0.85,,,Prof.Yeh-3dtransitional
Al1Fe1Ni1Ti1V1Zr1,,,25,5.9,5.851613812,BCC,800,,,,119.4237557,,,https://doi.org/10.1016/j.dib.2018.11.111,Data in Brief 21 (2018) 2664¡V2678
Al1Li0.5Mg1Sn0.2Zn0.5,,C,25,2.9,2.899852368,FCC+Sec.,,546,546,,52.66086888,,,https://doi.org/10.1016/j.dib.2018.11.111,Data in Brief 21 (2018) 2664¡V2678
Al1Li1Mg0.5Sc1Ti1.5,,,25,2.7,2.670243532,FCC+HCP,591,,,,66.25382092,,,https://doi.org/10.1016/j.dib.2018.11.111,Data in Brief 21 (2018) 2664¡V2678
Al1Li1Mg1Sn1Zn1,,C,25,3.9,3.879406733,FCC+HCP+Sec.,,600,615,,51.18581719,1,,https://doi.org/10.1016/j.dib.2018.11.111,Data in Brief 21 (2018) 2664¡V2678
Al1Mo0.5Nb1Ta0.5Ti1Zr1,,,25,7.1,7.147250402,BCC,,2000,,,118.2773132,10,,https://doi.org/10.1016/j.dib.2018.11.111,Data in Brief 21 (2018) 2664¡V2678
Al1Mo0.5Nb1Ta0.5Ti1Zr1,,,800,7.1,7.147250402,BCC,,1597,,,118.2773132,11,,https://doi.org/10.1016/j.dib.2018.11.111,Data in Brief 21 (2018) 2664¡V2678
Al1Mo0.5Nb1Ta0.5Ti1Zr1,,,1000,7.1,7.147250402,BCC,,745,,,118.2773132,50,,https://doi.org/10.1016/j.dib.2018.11.111,Data in Brief 21 (2018) 2664¡V2678
Al1Mo0.5Nb1Ta0.5Ti1Zr1,,,1200,7.1,7.147250402,BCC,,250,,,118.2773132,50,,https://doi.org/10.1016/j.dib.2018.11.111,Data in Brief 21 (2018) 2664¡V2678
Al1Mo0.5Nb1Ta0.5Ti1Zr1,,C,25,7.1,7.147250402,BCC,591,2000,2368,,118.2773132,10,,https://doi.org/10.1016/j.dib.2018.11.111,Data in Brief 21 (2018) 2664¡V2678
Al1Mo1Nb1Ti1V1,,C,25,6.4,6.398950958,BCC,537,1375,,,146.8857027,3,,https://doi.org/10.1016/j.dib.2018.11.111,Data in Brief 21 (2018) 2664¡V2678
Al1Mo1Nb1Ti1V1,CAST,C,25,6.4,6.398950958,BCC,537,1375,,150,146.8857027,3,2,,Prof.Yeh-RHEA
Al1Nb1.5Ta0.5Ti1.5Zr0.5,,,25,6.8,6.848966848,BCC,,1280,,,105.1027635,4,,https://doi.org/10.1016/j.dib.2018.11.111,Data in Brief 21 (2018) 2664¡V2678
Al1Nb1.5Ta0.5Ti1.5Zr0.5,,,800,6.8,6.848966848,BCC,,728,,,105.1027635,12,,https://doi.org/10.1016/j.dib.2018.11.111,Data in Brief 21 (2018) 2664¡V2678
Al1Nb1.5Ta0.5Ti1.5Zr0.5,,,1000,6.8,6.848966848,BCC,,403,,,105.1027635,50,,https://doi.org/10.1016/j.dib.2018.11.111,Data in Brief 21 (2018) 2664¡V2678
Al1Nb1.5Ta0.5Ti1.5Zr0.5,,C,25,6.8,6.848966848,BCC,408,1280,1367,,105.1027635,4,,https://doi.org/10.1016/j.dib.2018.11.111,Data in Brief 21 (2018) 2664¡V2678
Al1Nb1Ta1Ti1V1,,C,25,7.9,7.891870036,BCC,,993,,121,121.5333728,,,https://doi.org/10.1016/j.dib.2018.11.111,Data in Brief 21 (2018) 2664¡V2678
Al1Nb1Ti1V1,,,25,5.5,5.496265861,BCC,,1020,,,103.9545112,5,,https://doi.org/10.1016/j.dib.2018.11.111,Data in Brief 21 (2018) 2664¡V2678
Al1Nb1Ti1V1,,,600,5.5,5.496265861,BCC,,810,,,103.9545112,12,,https://doi.org/10.1016/j.dib.2018.11.111,Data in Brief 21 (2018) 2664¡V2678
Al1Nb1Ti1V1,,,800,5.5,5.496265861,BCC,,685,,,103.9545112,50,,https://doi.org/10.1016/j.dib.2018.11.111,Data in Brief 21 (2018) 2664¡V2678
Al1Nb1Ti1V1,,,1000,5.5,5.496265861,BCC,,158,,,103.9545112,50,,https://doi.org/10.1016/j.dib.2018.11.111,Data in Brief 21 (2018) 2664¡V2678
Al1Nb1Ti1V1,,C,25,5.5,5.496265861,BCC,448,1020,1318,,103.9545112,5,,https://doi.org/10.1016/j.dib.2018.11.111,Data in Brief 21 (2018) 2664¡V2678
Al1Nb1Ti1V1,,C,25,5.5,5.496265861,BCC,,1000,1280,,103.9545112,5,,https://doi.org/10.1016/j.dib.2018.11.111,Data in Brief 21 (2018) 2664¡V2678
Al1Nb1Ti1V1,ANNEAL,C,25,5.59,5.496265861,BCC,443.5,1020,,,103.9545112,5,5,,Prof.Yeh-RHEA
Al1Nb1Ti1V1Zr1,ANNEAL,C,25,5.79,5.759532031,B2+Sec.+Laves,,1500,,,94.58669392,3,3,,Prof.Yeh-RHEA
Al1Nb1Ti1V1Zr0.1,ANNEAL,C,25,5.53,5.53065689,B2+Sec.,,1290,,,102.730773,3.7,3.7,,Prof.Yeh-RHEA
Al1Nb1Ti1V1Zr0.25,ANNEAL,C,25,5.57,5.578067181,B2+Sec.,,1360,,,101.0437695,9.3,9.3,,Prof.Yeh-RHEA
Al1Nb1Ti1V1Zr0.5,CAST,C,25,5.641,5.647615782,B2+Sec.+Laves,,962,,,98.56901709,1,1,,Prof.Yeh-RHEA
Al1Nb1Ti1V1Zr1.5,ANNEAL,C,25,5.87,5.845649763,B2+Sec.+Laves,,1540,,,91.52236107,0.4,0.4,,Prof.Yeh-RHEA
B0.006Co0.201Cr0.201Fe1Mn0.604,CAST,,,,7.8,FCC+Sec.,282,,,,,,,10.1016/j.msea.2019.01.088,
B0.012Co0.202Cr0.202Fe1Mn0.607,CAST,,,,7.8,FCC+Sec.,306,,,,,,,10.1016/j.msea.2019.01.088,
B0.035Co0.207Cr0.207Fe1Mn0.621,CAST,,,,7.7,FCC+Sec.,452,,,,,,,10.1016/j.msea.2019.01.088,
C0.02Co1Cr1Fe1Mn1Ni1,WROUGHT,T,25,,8,FCC+Sec.,,446,723,,,15,,10.1080/02670836.2017.1342367,
C0.02Co1Cr1Fe1Mn1Ni1,WROUGHT,T,25,,8,FCC+Sec.,,581,857,,,28,,10.1080/02670836.2017.1342367,
C0.041Co1Cr1Fe1Mn1Nb0.041Ni1,WROUGHT,T,25,,8,FCC+Sec.,,732,911,,,,32,10.1016/j.jallcom.2019.04.121,
C0.053Co1Cr1Fe1Mn1Ni1,ANNEAL,C,800,,8,FCC+Sec.,345,,,,,,,10.1007/s40195-019-00916-0,
C0.053Co1Cr1Fe1Mn1Ni1,ANNEAL,C,1000,,8,FCC+Sec.,285,,,,,,,10.1007/s40195-019-00916-0,
C0.111Co1Cr1Fe1Ni1W0.111,POWDER,,,7.24,8.5,FCC,475,,,,,,,10.3390/coatings9010016,
C0.1Co1Cr1Fe1Mn1Ni1Ti0.1,POWDER,C,25,7.5,7.8,FCC+Sec.,457,1616,,,,,4.5,10.1016/j.vacuum.2019.04.043,
C0.1Co1Cr1Fe1Mn1Ni1Ti0.1,POWDER,C,25,7.64,7.8,FCC+Sec.,461,1652,,,,,10,10.1016/j.vacuum.2019.04.043,
C0.1Co1Cr1Fe1Mn1Ni1Ti0.1,POWDER,C,25,7.66,7.8,FCC+Sec.,428,1490,,,,,11.4,10.1016/j.vacuum.2019.04.043,
C0.1Co1Cr1Fe1Mn1Ni1Ti0.1,POWDER,C,25,7.69,7.8,FCC+Sec.,378,1194,,,,,20.1,10.1016/j.vacuum.2019.04.043,
C0.1Hf0.5Mo0.5Nb1Ti1Zr1,CAST,C,25,,7.8,BCC+Sec.,,1183,2139,,,38,,10.1016/j.intermet.2015.09.011,
C0.2Mo1Nb1Re0.5Ta0.2W1,CAST,C,25,,13.5,BCC+Sec.,510,1074,,,,12.1,8.33,10.1016/j.jallcom.2018.11.111,
C0.3Hf0.5Mo0.5Nb1Ti1Zr1,CAST,C,25,,7.7,BCC+Sec.,,1201,1965,,,33,,10.1016/j.intermet.2015.09.011,
C0.429Co1Cr1Fe1Ni1W0.429,POWDER,,,8.39,9.1,FCC,531,,,,,,,10.3390/coatings9010016,
C0.4Mo1Nb1Re0.5Ta0.4W1,CAST,C,25,,13.4,BCC+Sec.,558,1144,,,,12.7,8.81,10.1016/j.jallcom.2018.11.111,
C0.5Co1Cr1Fe1Mn1Ni1,WROUGHT,T,25,,7.6,FCC,,520.9,791,,,40.3,,10.1016/j.msea.2019.01.050,
C0.5Mo1Nb1Re0.5Ta0.5W1,CAST,C,25,,13.3,BCC+Sec.,583,1202,,,,14.2,10.25,10.1016/j.jallcom.2018.11.111,
C0.6Mo1Nb1Re0.5Ta0.6W1,CAST,C,25,,13.3,BCC+Sec.,615,1241,,,,13.8,9.64,10.1016/j.jallcom.2018.11.111,
C1Co1Cr1Fe1Mn1Ni1,WROUGHT,T,25,,7.3,FCC,,643.8,888,,,31.9,,10.1016/j.msea.2019.01.050,
Co0.043Nb0.638Ni1Ta0.255Ti0.191,CAST,,25,,9.5,,815,,,,,,,10.1038/s41467-019-10533-1,
Co0.067Cu0.067Fe0.067Nb1Ni0.067,WROUGHT,C,25,,8.6,FCC+Laves,,1415,,,,12.6,,10.1557/jmr.2019.36,
Co0.086Cu0.086Fe0.086Nb1Ni0.086,WROUGHT,C,25,,8.6,FCC+Laves,,1703,,,,18.3,,10.1557/jmr.2019.36,
Co0.133Cu0.133Fe0.133Nb1Ni0.133,WROUGHT,C,25,,8.6,FCC+Laves,,1635,,,,31.7,,10.1557/jmr.2019.36,
Co0.139Cr0.446Cu0.99Ni1Si0.277,WROUGHT,T,25,,7.6,,142.5,777,810,,,3.4,,10.1016/j.msea.2019.05.003,
Co0.139Cr0.446Cu0.99Ni1Si0.277,WROUGHT,,,,7.6,,147.4,,,,,,,10.1016/j.msea.2019.05.003,
Co0.139Cr0.446Cu0.99Ni1Si0.277,WROUGHT,,,,7.6,,155.2,,,,,,,10.1016/j.msea.2019.05.003,
Co0.25Cr0.25Fe1Mn1,CAST,T,25,,7.7,FCC,,213,471,,212,55.7,,10.1016/j.msea.2019.138039,
Co0.25Cr0.25Fe1Mn1,CAST,T,25,,7.7,FCC,,393,634,,212,26.5,,10.1016/j.msea.2019.138039,
Co0.25Cr0.25Fe1Mn1,WROUGHT,T,25,,7.7,FCC,,792,1055,,212,22.6,,10.1016/j.msea.2019.138039,
Co0.25Cr0.25Fe1Mn1,WROUGHT,T,25,,7.7,FCC,,559,1004,,212,33.9,,10.1016/j.msea.2019.138039,
Co0.25Cr0.25Fe1Mn1,WROUGHT,T,25,,7.7,FCC,,512,978,,212,55.3,,10.1016/j.msea.2019.138039,
Co0.25Cr0.25Fe1Mn1,WROUGHT,T,25,,7.7,FCC,,476,947,,212,69.4,,10.1016/j.msea.2019.138039,
Co0.25Cr1Ni1,WROUGHT,T,25,,8.1,FCC,,518,744,240,238,36,,10.1016/j.actamat.2019.04.017,
Co0.25Cr1Ni1,WROUGHT,T,25,,8.1,FCC,,462,703,240,238,46,,10.1016/j.actamat.2019.04.017,
Co0.25Cr1Ni1,WROUGHT,T,25,,8.1,FCC,,395,644,240,238,58,,10.1016/j.actamat.2019.04.017,
Co0.25Cr1Ni1,WROUGHT,T,25,,8.1,FCC,,356,588,240,238,64,,10.1016/j.actamat.2019.04.017,
Co0.273Cr0.477Nb0.477Ni0.045Ti1,CAST,,25,,6.4,,422,,,,,,,10.1038/s41467-019-10533-1,
Co0.286Cr0.429Fe1Mn0.143Ni0.714V0.286,WROUGHT,T,25,,7.9,FCC,,401,717,,208,49,,10.1016/j.msea.2018.12.077,
Co0.286Cr0.429Fe1Mn0.143Ni0.714V0.286,WROUGHT,T,25,,7.9,FCC,,350,690,,208,50,,10.1016/j.msea.2018.12.077,
Co0.286Cr0.429Fe1Mn0.143Ni0.714V0.286,WROUGHT,T,25,,7.9,FCC,,312,660,,208,51,,10.1016/j.msea.2018.12.077,
Co0.286Cr0.429Fe1Mn0.143Ni0.714V0.286,WROUGHT,T,25,,7.9,FCC,,240,610,,208,53,,10.1016/j.msea.2018.12.077,
Co0.286Cr0.429Fe1Mn0.143Ni0.714V0.286,WROUGHT,T,25,,7.9,FCC,,210,593,,208,52,,10.1016/j.msea.2018.12.077,
Co0.2Cr0.2Fe1Mn0.6,WROUGHT,T,25,,7.8,FCC+HCP,,298,1400,,,50,,10.1038/s41598-017-16509-9,
Co0.2Cr0.2Fe1Mn0.6,WROUGHT,T,25,,7.8,FCC+HCP,,400,1200,,,75,,10.1038/s41598-017-16509-9,
Co0.2Cr0.2Fe1Mn0.6,CAST,,,,7.8,FCC+Sec.,296,,,,,65,,10.1016/j.msea.2019.01.088,
Co0.2Cr0.2Fe1Mn0.6,ANNEAL,T,25,,7.8,FCC+HCP,,250,730,,,63,,10.1016/j.actamat.2017.03.069,
Co0.2Cr0.2Fe1Mn0.6,WROUGHT,T,25,,7.8,FCC+HCP,,330,870,,,45,,10.1016/j.actamat.2017.03.069,
Co0.2Cr0.2Fe1Mn0.6,WROUGHT,T,25,,7.8,FCC+HCP,,280,800,,,42,,10.1016/j.actamat.2017.03.069,
Co0.2Cr0.2Fe1Mn0.6,WROUGHT,T,25,,7.8,FCC+HCP,,350,830,,,,,10.1016/j.actamat.2017.03.069,
Co0.2Cu0.2Fe0.2Nb1Ni0.2,WROUGHT,C,25,,8.6,FCC+Laves,,1498,,,,37.6,,10.1557/jmr.2019.36,
Co0.318Cr0.227Fe1Mo0.091Ni0.182,WROUGHT,T,25,,8.2,FCC+Sec.,,443,840,,,61.6,,10.1016/j.jallcom.2018.12.040,
Co0.318Cr0.227Fe1Mo0.091Ni0.182,WROUGHT,T,25,,8.2,FCC+Sec.,,301,718,,,77.5,,10.1016/j.jallcom.2018.12.040,
Co0.318Cr0.227Fe1Mo0.091Ni0.182,WROUGHT,T,25,,8.2,FCC+Sec.,,261,673,,,86.6,,10.1016/j.jallcom.2018.12.040,
Co0.318Cr0.227Fe1Mo0.091Ni0.182,WROUGHT,T,25,,8.2,FCC+Sec.,,231,638,,,87.2,,10.1016/j.jallcom.2018.12.040,
Co0.327Cr0.227Fe1Mo0.136Ni0.127,WROUGHT,T,25,,8.2,FCC+Sec.,,711,1096,,,38.3,,10.1016/j.jallcom.2018.12.040,
Co0.327Cr0.227Fe1Mo0.136Ni0.127,WROUGHT,T,25,,8.2,FCC+Sec.,,684,1078,,,48.1,,10.1016/j.jallcom.2018.12.040,
Co0.327Cr0.227Fe1Mo0.136Ni0.127,WROUGHT,T,25,,8.2,FCC+Sec.,,506,933,,,59.3,,10.1016/j.jallcom.2018.12.040,
Co0.327Cr0.227Fe1Mo0.136Ni0.127,WROUGHT,T,25,,8.2,FCC+Sec.,,296,693,,,63.2,,10.1016/j.jallcom.2018.12.040,
Co0.333Cr0.667Fe0.667Ni1Ti0.2,WROUGHT,,,,7.8,FCC,197,,,,213,,,10.1016/j.msea.2019.138181,
Co0.333Cr0.667Fe0.667Ni1Ti0.2,WROUGHT,T,25,,7.8,FCC,308,586,875,,213,46,,10.1016/j.msea.2019.138181,
Co0.476Cr0.476Fe0.476Nb0.095Ni1,CAST,T,25,,8.3,FCC+Laves,,170,537,,,32,,10.1016/j.matlet.2019.04.012,
Co0.476Cr0.476Fe0.476Nb0.095Ni1,ANNEAL,T,25,,8.3,FCC+Laves+Sec.,,560,860,,,19,,10.1016/j.matlet.2019.04.012,
Co0.476Cr0.476Fe0.476Nb0.19Ni1,CAST,T,25,,8.4,FCC+Laves,,640,840,,,7,,10.1016/j.matlet.2019.04.012,
Co0.476Cr0.476Fe0.476Nb0.19Ni1,ANNEAL,T,25,,8.4,FCC+Laves,,,,,,3,,10.1016/j.matlet.2019.04.012,
Co0.556Fe0.556Mo0.556Ni1V0.556,CAST,,25,,8.5,FCC+Sec.,510,,,,,,,10.1016/j.jallcom.2015.07.185,
Co0.564Nb0.795Ta0.103Ti1W0.103,CAST,,25,,7.7,,277,,,,,,,10.1038/s41467-019-10533-1,
Co0.5Cr0.5Fe1Ni1,WROUGHT,T,25,,8.2,FCC,,214,612,,219,77.3,,10.1080/21663831.2018.1553803,
Co0.5Fe0.5Mo0.1Ni1V0.25,CAST,T,-196,,8.4,FCC,,419,,,202,,34.6,10.1016/j.scriptamat.2019.02.038,
Co0.5Fe0.5Mo0.1Ni1V0.25,CAST,T,-70,,8.4,FCC,,350,,,202,,28.8,10.1016/j.scriptamat.2019.02.038,
Co0.5Fe0.5Mo0.1Ni1V0.25,CAST,T,20,,8.4,FCC,,252,,,202,,82.1,10.1016/j.scriptamat.2019.02.038,
Co0.5Fe0.5Mo0.1Ni1V0.25,CAST,T,600,,8.4,FCC,,214,,,202,,189.2,10.1016/j.scriptamat.2019.02.038,
Co0.5Fe0.5Mo0.1Ni1V0.25,CAST,T,700,,8.4,FCC,,212,,,202,,154.3,10.1016/j.scriptamat.2019.02.038,
Co0.5Fe0.5Mo0.1Ni1V0.25,CAST,T,800,,8.4,FCC,,187,,,202,,119.5,10.1016/j.scriptamat.2019.02.038,
Co0.5Fe0.5Mo0.5Ni1V0.5,CAST,,25,,8.5,FCC+Sec.,382,,,,,,,10.1016/j.jallcom.2015.07.185,
Co0.625Fe0.625Mo0.625Ni1V0.625,CAST,,25,,8.5,FCC+Sec.,520,,,,,,,10.1016/j.jallcom.2015.07.185,
Co0.714Fe0.714Mo0.714Ni1V0.714,CAST,,25,,8.5,FCC+Sec.,538,,,,,,,10.1016/j.jallcom.2015.07.185,
Co0.833Fe0.833Mo0.833Ni1V0.833,CAST,,25,,8.4,FCC+Sec.,602,,,,,,,10.1016/j.jallcom.2015.07.185,
Co0.875Cr0.625Fe1Ni1,WROUGHT,T,25,,8.3,FCC,,241,721,,220,96.2,,10.1080/21663831.2018.1553803,
Co0.986Cr0.952Fe0.933Mn0.914Ni1,WROUGHT,T,25,,8,BCC,,1290,1415,,220,1.1,,10.1016/j.msea.2019.01.112,
Co0.986Cr0.952Fe0.933Mn0.914Ni1,WROUGHT,T,25,,8,FCC+BCC+Sec.,,1135,1260,,,1.8,,10.1016/j.msea.2019.01.112,
Co0.986Cr0.952Fe0.933Mn0.914Ni1,WROUGHT,T,25,,8,FCC+BCC+Sec.,,585,815,,,31.7,,10.1016/j.msea.2019.01.112,
Co0.986Cr0.952Fe0.933Mn0.914Ni1,WROUGHT,T,25,,8,FCC+Sec.,,425,735,,,40.2,,10.1016/j.msea.2019.01.112,
Co0.986Cr0.952Fe0.933Mn0.914Ni1,WROUGHT,T,25,,8,FCC,,270,630,,220,46.2,,10.1016/j.msea.2019.01.112,
Co0.986Cr0.952Fe0.933Mn0.914Ni1,WROUGHT,T,25,,8,,,1120,1175,,,1.5,,10.1016/j.msea.2019.01.112,
Co1.5Cr1Fe1Ni1.5Ti1,,,25,7.4,7.405752341,FCC+Sec.,654,,,,196.5539576,,,https://doi.org/10.1016/j.dib.2018.11.111,Data in Brief 21 (2018) 2664¡V2678
Co1.5Cr1Fe1Ni1.5Ti0.5,,,25,7.8,7.79697679,FCC,509,,,,207.3950164,,,https://doi.org/10.1016/j.dib.2018.11.111,Data in Brief 21 (2018) 2664¡V2678
Co1Cr0.053Ni1,WROUGHT,T,25,,8.8,FCC,,,,219,207,,,10.1016/j.actamat.2019.04.017,
Co1Cr0.25Ni1,WROUGHT,T,25,,8.7,FCC,,745,824,223,213,36,,10.1016/j.actamat.2019.04.017,
Co1Cr0.25Ni1,WROUGHT,T,25,,8.7,FCC,,623,746,223,213,53,,10.1016/j.actamat.2019.04.017,
Co1Cr0.25Ni1,WROUGHT,T,25,,8.7,FCC,,387,626,223,213,73,,10.1016/j.actamat.2019.04.017,
Co1Cr0.25Ni1,WROUGHT,T,25,,8.7,FCC,,330,553,223,213,101,,10.1016/j.actamat.2019.04.017,
Co1Cr0.2Fe1Ni1Si0.2,CAST,T,25,,7.8,FCC,130.1,225,732,,195,61,,10.1016/j.jmmm.2019.01.096,
Co1Cr0.2Fe1Ni1Si0.2,WROUGHT,T,25,,7.8,FCC,318.2,705,1070,,195,10,,10.1016/j.jmmm.2019.01.096,
Co1Cr0.2Fe1Ni1Si0.2,WROUGHT,T,25,,7.8,FCC,153.8,320,920,,195,60,,10.1016/j.jmmm.2019.01.096,
Co1Cr0.385Fe0.154Ni0.154,WROUGHT,T,25,,8.4,FCC+HCP,,482,857,,,13.3,,10.1080/21663831.2018.1553803,
Co1Cr0.429Fe0.571Mo0.286Ni0.571,CAST,T,25,,8.6,FCC,,350,720,,234,21.9,,10.1016/j.scriptamat.2017.05.019,