FORMULA,Process Method,Measurement Method,Measuremet T (?°C),Structure: Exp Density (g/cm^3),Structure: Calculated Density (g/cm^3),Structure: Microstructure,Mechanics: Hardness (HV),Mechanics: Yield strength (MPa),Mechanics: Ultra tensle strength (MPa),Mechanics: Exp Young modulus (GPa),Mechanics: Calculated Young modulus (GPa),Mechanics: Fracture Elongation (%),Mechanics: Plastic Elongation (%),Others: DOI,Others: Reference
Cr1Mo1Ta1Ti1,CAST,,,,9.9,BCC,539,,,,,,,10.1016/j.matdes.2018.06.003,
Cr1Mo1Ta1Ti1,ANNEAL,C,20,,9.9,BCC+Laves,,1795,,,,,,10.1016/j.actamat.2019.06.006,
Cr1Mo1Ta1Ti1,ANNEAL,C,100,,9.9,BCC+Laves,,1506,,,,,,10.1016/j.actamat.2019.06.006,
Cr1Mo1Ta1Ti1,ANNEAL,C,200,,9.9,BCC+Laves,,1266,,,,,,10.1016/j.actamat.2019.06.006,
Cr1Mo1Ta1Ti1,ANNEAL,C,300,,9.9,BCC+Laves,,1183,,,,,,10.1016/j.actamat.2019.06.006,
Cr1Mo1Ta1Ti1,ANNEAL,C,400,,9.9,BCC+Laves,,1175,,,,,,10.1016/j.actamat.2019.06.006,
Cr1Mo1Ta1Ti1,ANNEAL,C,600,,9.9,BCC+Laves,,1162,,,,,,10.1016/j.actamat.2019.06.006,
Cr1Mo1Ta1Ti1,ANNEAL,C,800,,9.9,BCC+Laves,,1162,,,219,,,10.1016/j.actamat.2019.06.006,
Cr1Mo1Ta1Ti1,ANNEAL,C,1000,,9.9,BCC+Laves,,1159,,,219,,,10.1016/j.actamat.2019.06.006,
Cr1Nb1Ta1Ti1,ANNEAL,,,,9.4,BCC+Sec.,,,,,,,,10.1016/j.matdes.2018.06.003,
Cr1Nb1Ta1Ti1,CAST,,,,9.4,BCC,495,,,,162,,,10.1016/j.matdes.2018.06.003,
Cr1Nb1Ti1W1,ANNEAL,,,,9.9,BCC+Sec.,630,,,,,,,10.1016/j.matdes.2018.06.003,
Cr1Nb1Ti1W1,CAST,,,,9.9,BCC,630,,,,217,,,10.1016/j.matdes.2018.06.003,
Cr1Nb1Ti1Zr1,,C,25,6.67,6.6,,418,1260,,,,6,,10.1016/j.actamat.2012.11.032,
Cr1Ta1Ti0.17V1W1,POWDER,C,25,,12.6,BCC+Laves,715,2034,,,,1.5,,10.1016/j.matchemphys.2017.06.054,
Cr1Ta1Ti0.17V1W1,POWDER,C,1200,,12.6,BCC+Laves,,750,,,,1.5,,10.1016/j.matchemphys.2017.06.054,
Cr1Ta1Ti0.3V1W1,POWDER,C,25,,12.3,BCC+Laves,780,2050,,,,1.5,,10.1016/j.matchemphys.2017.06.054,
Cr1Ta1Ti0.3V1W1,POWDER,C,1200,,12.3,BCC+Laves,,586,,,,1.5,,10.1016/j.matchemphys.2017.06.054,
Cr1Ta1V1W1,POWDER,C,25,,13,BCC+Laves,715,2327,,,,1.5,,10.1016/j.matchemphys.2017.06.054,
Cr1Ta1V1W1,POWDER,C,1200,,13,BCC+Laves,,979,,,,1.5,,10.1016/j.matchemphys.2017.06.054,
Cr1Cu1Fe1Mn1Ni1,,,25,8.1,8.058200311,FCC+BCC,296,,,,203.8665536,,,https://doi.org/10.1016/j.dib.2018.11.111,Data in Brief 21 (2018) 2664¡V2678
Cr1Cu1Fe1Mo1Ni1,,,25,8.7,8.717125668,FCC,263,,,,236.4032086,,,https://doi.org/10.1016/j.dib.2018.11.111,Data in Brief 21 (2018) 2664¡V2678
Cr1Fe1Mo0.1Ni2,ANNEAL,,,,,,228,,,,,,,,Paper_Collection_4_element
Cr1Fe1Mo0.1Ni2,ANNEAL,,,,,,270,,,,,,,,Paper_Collection_4_element
Cr1Fe1Mo0.1Ni2,ANNEAL,,,,,,257,,,,,,,,Paper_Collection_4_element
Cr1Fe1Mo0.1Ni2,ANNEAL,,,,,,224,,,,,,,,Paper_Collection_4_element
Cr1Fe1Mo0.1Ni3,ANNEAL,C,,,8.37944787,FCC,228,,,,221.9870389,,,,Paper_Collection_4_element
Cr1Fe1Mo0.1Ni4,ANNEAL,C,,,8.46289346,FCC,270,,,,218.5055024,,,,Paper_Collection_4_element
Cr1Fe1Mo0.1Ni5,ANNEAL,C,,,8.523525141,FCC,257,,,,215.9758131,,,,Paper_Collection_4_element
Cr1Fe1Mo0.1Ni6,ANNEAL,C,,,8.569573707,FCC,224,,,,214.054564,,,,Paper_Collection_4_element
Cr1Fe1Mo0.2Ni2,ANNEAL,,,,,,238,,,,,,,,Paper_Collection_4_element
Cr1Fe1Mo0.2Ni2,ANNEAL,,,,,,308,,,,,,,,Paper_Collection_4_element
Cr1Fe1Mo0.2Ni2,ANNEAL,,,,,,286,,,,,,,,Paper_Collection_4_element
Cr1Fe1Mo0.2Ni2,ANNEAL,,,,,,262,,,,,,,,Paper_Collection_4_element
Cr1Fe1Mo0.2Ni3,ANNEAL,C,,,8.427662237,FCC,238,,,,224.777957,,,,Paper_Collection_4_element
Cr1Fe1Mo0.2Ni4,ANNEAL,C,,,8.501802331,FCC+Sec.,308,,,,220.9409719,,,,Paper_Collection_4_element
Cr1Fe1Mo0.2Ni5,ANNEAL,C,,,8.556059496,FCC+Sec.,286,,,,218.1329915,,,,Paper_Collection_4_element
Cr1Fe1Mo0.2Ni6,ANNEAL,C,,,8.597486364,FCC,262,,,,215.9890197,,,,Paper_Collection_4_element
Cr1Fe1Mo0.3Ni2,ANNEAL,,,,,,268,,,,,,,,Paper_Collection_4_element
Cr1Fe1Mo0.3Ni2,ANNEAL,,,,,,382,,,,,,,,Paper_Collection_4_element
Cr1Fe1Mo0.3Ni2,ANNEAL,,,,,,367,,,,,,,,Paper_Collection_4_element
Cr1Fe1Mo0.3Ni2,ANNEAL,,,,,,293,,,,,,,,Paper_Collection_4_element
Cr1Fe1Mo0.3Ni3,ANNEAL,C,,,8.473425645,FCC,268,,,,227.4269998,,,,Paper_Collection_4_element
Cr1Fe1Mo0.3Ni4,ANNEAL,C,,,8.53903297,FCC+Sec.,382,,,,223.2713938,,,,Paper_Collection_4_element
Cr1Fe1Mo0.3Ni5,ANNEAL,C,,,8.58737521,FCC+Sec.,367,,,,220.2093683,,,,Paper_Collection_4_element
Cr1Fe1Mo0.3Ni6,ANNEAL,C,,,8.624475068,FCC+Sec.,293,,,,217.8594417,,,,Paper_Collection_4_element
Cr1Fe1Mo0.4Ni2,ANNEAL,,,,,,289,,,,,,,,Paper_Collection_4_element
Cr1Fe1Mo0.4Ni2,ANNEAL,,,,,,457,,,,,,,,Paper_Collection_4_element
Cr1Fe1Mo0.4Ni2,ANNEAL,,,,,,408,,,,,,,,Paper_Collection_4_element
Cr1Fe1Mo0.4Ni2,ANNEAL,,,,,,362,,,,,,,,Paper_Collection_4_element
Cr1Fe1Mo0.4Ni3,ANNEAL,C,,,8.516920353,FCC+Sec.,289,,,,229.9447175,,,,Paper_Collection_4_element
Cr1Fe1Mo0.4Ni4,ANNEAL,C,,,8.574691664,FCC+Sec.,457,,,,225.503421,,,,Paper_Collection_4_element
Cr1Fe1Mo0.4Ni5,ANNEAL,C,,,8.617539493,FCC+Sec.,408,,,,222.2093999,,,,Paper_Collection_4_element
Cr1Fe1Mo0.4Ni6,ANNEAL,C,,,8.650584948,FCC+Sec.,362,,,,219.6689579,,,,Paper_Collection_4_element
Cr1Fe1Mo0.5Ni2,ANNEAL,,,,,,345,,,,,,,,Paper_Collection_4_element
Cr1Fe1Mo0.5Ni2,ANNEAL,,,,,,520,,,,,,,,Paper_Collection_4_element
Cr1Fe1Mo0.5Ni2,ANNEAL,,,,,,452,,,,,,,,Paper_Collection_4_element
Cr1Fe1Mo0.5Ni2,ANNEAL,,,,,,405,,,,,,,,Paper_Collection_4_element
Cr1Fe1Mo0.5Ni3,ANNEAL,C,,,8.558310985,FCC+Sec.,345,,,,232.3406395,,,,Paper_Collection_4_element
Cr1Fe1Mo0.5Ni4,ANNEAL,C,,,8.608875909,FCC+Sec.,520,,,,227.6431563,,,,Paper_Collection_4_element
Cr1Fe1Mo0.5Ni5,ANNEAL,C,,,8.646614704,FCC+Sec.,452,,,,224.1372209,,,,Paper_Collection_4_element
Cr1Fe1Mo0.5Ni6,ANNEAL,C,,,8.675858241,FCC+Sec.,405,,,,221.4204953,,,,Paper_Collection_4_element
Cr1Hf1Nb1Ti1Zr1,,,25,8.1,8.235104701,BCC+Sec.,,1375,,,113.7863248,3,,https://doi.org/10.1016/j.dib.2018.11.111,Data in Brief 21 (2018) 2664¡V2678
Cr1Hf1Nb1Ti1Zr1,,,300,8.1,8.235104701,BCC+Sec.,,1420,,,113.7863248,4,,https://doi.org/10.1016/j.dib.2018.11.111,Data in Brief 21 (2018) 2664¡V2678
Cr1Hf1Nb1Ti1Zr1,,,500,8.1,8.235104701,BCC+Sec.,,1457,,,113.7863248,2,,https://doi.org/10.1016/j.dib.2018.11.111,Data in Brief 21 (2018) 2664¡V2678
Cr1Hf1Nb1Ti1Zr1,,,700,8.1,8.235104701,BCC+Sec.,,1322,,,113.7863248,1,,https://doi.org/10.1016/j.dib.2018.11.111,Data in Brief 21 (2018) 2664¡V2678
Cr1Hf1Nb1Ti1Zr1,,,900,8.1,8.235104701,BCC+Sec.,,1328,,,113.7863248,5,,https://doi.org/10.1016/j.dib.2018.11.111,Data in Brief 21 (2018) 2664¡V2678
Cr1Hf1Nb1Ti1Zr1,,C,25,8.2,8.235104701,BCC+Sec.,464,1375,2130,,113.7863248,3,,https://doi.org/10.1016/j.dib.2018.11.111,Data in Brief 21 (2018) 2664¡V2678
Cr1Hf1Nb1Ti1Zr1,CAST,C,25,8.2,8.235104701,BCC+Laves,464,1375,2130,112,113.7863248,3,3,,Prof.Yeh-RHEA
Cr1Mo0.5Nb1Ta0.5Ti1Zr1,,,25,8,7.995408725,BCC+Sec.,,1595,,,149.4081575,5,,https://doi.org/10.1016/j.dib.2018.11.111,Data in Brief 21 (2018) 2664¡V2678
Cr1Mo0.5Nb1Ta0.5Ti1Zr1,,,800,8,7.995408725,BCC+Sec.,,983,,,149.4081575,6,,https://doi.org/10.1016/j.dib.2018.11.111,Data in Brief 21 (2018) 2664¡V2678
Cr1Mo0.5Nb1Ta0.5Ti1Zr1,,,1000,8,7.995408725,BCC+Sec.,,546,,,149.4081575,50,,https://doi.org/10.1016/j.dib.2018.11.111,Data in Brief 21 (2018) 2664¡V2678
Cr1Mo0.5Nb1Ta0.5Ti1Zr1,,,1200,8,7.995408725,BCC+Sec.,,170,,,149.4081575,50,,https://doi.org/10.1016/j.dib.2018.11.111,Data in Brief 21 (2018) 2664¡V2678
Cr1Mo0.5Nb1Ta0.5Ti1Zr1,,C,25,8,7.995408725,BCC+Sec.,540,1595,2046,,149.4081575,5,,https://doi.org/10.1016/j.dib.2018.11.111,Data in Brief 21 (2018) 2664¡V2678
Cr1Mo1Nb1Ta0.125Ti1V0.375Zr0.5,ANNEAL,C,25,7.6,7.586674955,BCC+Laves,,1650.344,,,173.5633117,1.9,1.9,,Prof.Yeh-RHEA
Cr1Mo1Nb1Ta0.25Ti1V0.25Zr0.5,ANNEAL,C,25,7.88,7.864357741,BCC+Laves,,1650,,,174.8514008,1.9,1.9,,Prof.Yeh-RHEA
Cr1Mo1Nb1Ta0.375Ti1V0.125Zr0.5,ANNEAL,C,25,8.15,8.138541747,BCC+Laves,,1693.634,,,176.12326,2.1,2.1,,Prof.Yeh-RHEA
Cr1Mo1Nb1Ta0.5Ti1Zr0.5,ANNEAL,C,25,8.42,8.409292685,BCC+Laves,,1713.954,,,177.3791943,3,3,,Prof.Yeh-RHEA
Cr1Mo1Nb1Ti1V0.5Zr0.5,ANNEAL,C,25,7.32,7.30542599,BCC+Laves,,1576,,,172.2586802,2.9,2.9,,Prof.Yeh-RHEA
Cr1Nb1Ti1.89V0.56,CAST,C,25,6.17,6.161703106,BCC,,990,,,142.0401973,50,50,,Prof.Yeh-RHEA
Cr1Nb1Ti1V1Zr1,,,25,6.6,6.562205721,BCC+Sec.,,1298,,,125.5266458,3,,https://doi.org/10.1016/j.dib.2018.11.111,Data in Brief 21 (2018) 2664¡V2678
Cr1Nb1Ti1V1Zr1,,,600,6.6,6.562205721,BCC+Sec.,,1230,,,125.5266458,10,,https://doi.org/10.1016/j.dib.2018.11.111,Data in Brief 21 (2018) 2664¡V2678
Cr1Nb1Ti1V1Zr1,,,800,6.6,6.562205721,BCC+Sec.,,615,,,125.5266458,50,,https://doi.org/10.1016/j.dib.2018.11.111,Data in Brief 21 (2018) 2664¡V2678
Cr1Nb1Ti1V1Zr1,,,1000,6.6,6.562205721,BCC+Sec.,,259,,,125.5266458,50,,https://doi.org/10.1016/j.dib.2018.11.111,Data in Brief 21 (2018) 2664¡V2678
Cr1Nb1Ti1V1Zr1,,C,25,6.6,6.562205721,BCC+Sec.,482,1298,,,125.5266458,3,,https://doi.org/10.1016/j.dib.2018.11.111,Data in Brief 21 (2018) 2664¡V2678
Cr1Nb1Ti1Zr1,,,25,6.6,6.647787453,BCC+Sec.,,1260,,,125.0449438,6,,https://doi.org/10.1016/j.dib.2018.11.111,Data in Brief 21 (2018) 2664¡V2678
Cr1Nb1Ti1Zr1,,,600,6.6,6.647787453,BCC+Sec.,,1035,,,125.0449438,50,,https://doi.org/10.1016/j.dib.2018.11.111,Data in Brief 21 (2018) 2664¡V2678
Cr1Nb1Ti1Zr1,,,800,6.6,6.647787453,BCC+Sec.,,300,,,125.0449438,50,,https://doi.org/10.1016/j.dib.2018.11.111,Data in Brief 21 (2018) 2664¡V2678
Cr1Nb1Ti1Zr1,,,1000,6.6,6.647787453,BCC+Sec.,,115,,,125.0449438,50,,https://doi.org/10.1016/j.dib.2018.11.111,Data in Brief 21 (2018) 2664¡V2678
Cr1Nb1Ti1Zr1,,C,25,6.6,6.647787453,BCC+Sec.,418,1260,,,125.0449438,6,,https://doi.org/10.1016/j.dib.2018.11.111,Data in Brief 21 (2018) 2664¡V2678
Cu1Fe1Ni1Ti1V1Zr1,CAST,,25,,6.8,,590,,,,,,,10.1002/adem.200300567,
Cu1Mn1Ni1Sn0.053,CAST,C,25,,8.4,FCC+Sec.,205,380,,,,63,,10.1016/j.jallcom.2015.07.285,
Cu1Mn1Ni1Sn0.111,CAST,C,25,,8.3,FCC+Sec.,318,630,,,,20,,10.1016/j.jallcom.2015.07.285,
Cu1Mn1Ni1Zn0.25,CAST,C,25,,8.3,FCC,109,140,,,169,65,,10.1016/j.jallcom.2015.07.285,
Cu1Mn1Ni1Zn0.333,CAST,C,25,,8.3,FCC,147,215,,,167,60,,10.1016/j.jallcom.2015.07.285,
Cu1Fe1Ni1Ti1V1Zr1,,,25,6.8,6.846139111,Other,590,,,,130.0139483,,,https://doi.org/10.1016/j.dib.2018.11.111,Data in Brief 21 (2018) 2664¡V2678
Fe1Mn1Ni1,WROUGHT,T,25,,8.1,FCC,,529,613,182,203,36,,10.1016/j.actamat.2019.04.017,
Fe1Mn1Ni1,WROUGHT,T,25,,8.1,FCC,,522,601,182,203,25,,10.1016/j.actamat.2019.04.017,
Fe1Mn1Ni1,WROUGHT,T,25,,8.1,FCC,,460,599,182,203,25,,10.1016/j.actamat.2019.04.017,
Fe1Mn1Ni1,WROUGHT,T,25,,8.1,FCC,,407,536,182,203,27,,10.1016/j.actamat.2019.04.017,
Fe1Mn1Ni1,WROUGHT,T,25,,8.1,FCC,,372,542,182,203,26,,10.1016/j.actamat.2019.04.017,
Fe1Mn1Ni1,WROUGHT,T,25,,8.1,FCC,,322,554,182,203,31,,10.1016/j.actamat.2019.04.017,
Fe1Mn1Ni1,WROUGHT,T,25,,8.1,FCC,,221,602,,203,49,,10.1016/j.actamat.2014.08.026,
Fe1Mo1Nb1Ti1V1,CAST,C,25,,7.4,BCC+B2,699,1707,,,,1.7,,10.1007/s40195-019-00935-x,
Fe1Mo1Ni1Ti1V1Zr1,CAST,,25,,7.1,BCC+Sec.,740,,,,,,,10.1002/adem.200300567,
Fe1Mn1Ni1,,T,25,8.1,8.058794341,FCC,,221,602,,203.0095102,36,,https://doi.org/10.1016/j.dib.2018.11.111,Data in Brief 21 (2018) 2664¡V2678
Fe1Mo1Ni1Ti1V1Zr1,,,25,7.1,7.146875446,BCC+Sec.,740,,,,163.3220914,,,https://doi.org/10.1016/j.dib.2018.11.111,Data in Brief 21 (2018) 2664¡V2678
Fe1Ni1,,C,25,8.375,8.372690058,FCC,,185,,,205.7010234,35.8,,,Prof.Yeh-3dtransitional
Fe1Ni1Co1,,C,25,8.525,8.524402703,FCC,,211,,,206.7823096,30.8,,,Prof.Yeh-3dtransitional
Fe1Ni1Co1Cr1,,C,25,8.175,8.175043328,FCC,,274,,,225.7139231,38.6,,,Prof.Yeh-3dtransitional
Fe1Ni1Co1Mn1,,C,25,8.245,8.245835379,FCC,,170,,,204.4519856,41.1,,,Prof.Yeh-3dtransitional
Fe1Ni1Mn1,,C,25,8.055,8.058794341,FCC,,221,,,203.0095102,35.8,,,Prof.Yeh-3dtransitional
Hf0.05Mo0.12Ti0.32V0.195Zr0.315,CAST,C,25,6.55,6.620694816,BCC+Laves,,1371.5,,,117.9307007,13.95,7.65,,Prof.Yeh-RHEA
Hf0.05Mo0.165Ti0.35V0.30Zr0.135,CAST,C,25,6.6,6.688256359,BCC+Laves,,1416,,,139.5401746,23,15.05,,Prof.Yeh-RHEA
Hf0.05Nb0.155Si0.095Ti0.35V0.35,CAST,C,25,5.875,5.978483412,BCC+Sec.,,1307.5,,,107.304046,25.2,15.95,,Prof.Yeh-RHEA
Hf0.06Mo0.195Si0.065Ti0.35V0.33,CAST,C,25,6.48,6.553483922,BCC+Sec.,,1806,,,150.1605016,14.7,6.3,,Prof.Yeh-RHEA
Hf0.25Nb0.125Ti1V0.5Zr0.5,CAST,C,25,,6.6,BCC,332.4,1115,,,100,50,,10.1007/s40195-019-00921-3,
Hf0.25Nb0.25Ti1V0.5Zr0.5,CAST,C,25,,6.7,BCC,322.5,1065,,,100,50,,10.1007/s40195-019-00921-3,
Hf0.25Nb0.25Ti1V0.5Zr0.5,CAST,C,600,,6.7,BCC,322.5,718,,,100,50,,10.1007/s40195-019-00921-3,
Hf0.25Nb0.25Ti1V0.5Zr0.5,CAST,C,800,,6.7,BCC,322.5,135,,,100,50,,10.1007/s40195-019-00921-3,
Hf0.25Nb0.375Ti1V0.5Zr0.5,CAST,C,25,,6.8,BCC,318.9,1025,,,100,50,,10.1007/s40195-019-00921-3,
Hf0.25Nb0.5Ti1V0.5Zr0.5,CAST,C,25,,6.9,BCC,310.4,980,,,101,50,,10.1007/s40195-019-00921-3,
Hf0.25Nb0.5Ti1V0.5Zr0.5,CAST,C,600,,6.9,BCC,310.4,859,,,101,50,,10.1007/s40195-019-00921-3,
Hf0.25Nb0.5Ti1V0.5Zr0.5,CAST,C,800,,6.9,BCC,310.4,195,,,101,50,,10.1007/s40195-019-00921-3,
Hf0.25Ti1V0.5Zr0.5,CAST,C,25,,6.5,BCC,338.3,1160,,,100,50,,10.1007/s40195-019-00921-3,
Hf0.25Ti1V0.5Zr0.5,CAST,C,600,,6.5,BCC,338.3,405,,,100,50,,10.1007/s40195-019-00921-3,
Hf0.25Ti1V0.5Zr0.5,CAST,C,800,,6.5,BCC,338.3,85,,,100,50,,10.1007/s40195-019-00921-3,
Hf0.26Nb1Ta1Ti0.578Zr0.416,CAST,C,60,,10.4,BCC,,795,,,122,,,10.1080/14786435.2015.1028506,
Hf0.26Nb1Ta1Ti0.578Zr0.416,CAST,C,100,,10.4,BCC,,765,,,122,,,10.1080/14786435.2015.1028506,
Hf0.26Nb1Ta1Ti0.578Zr0.416,CAST,C,200,,10.4,BCC,,650,,,122,,,10.1080/14786435.2015.1028506,
Hf0.26Nb1Ta1Ti0.578Zr0.416,CAST,C,300,,10.4,BCC,,590,,,122,,,10.1080/14786435.2015.1028506,
Hf0.26Nb1Ta1Ti0.578Zr0.416,CAST,C,25,,10.4,BCC,,845,,,122,,,10.1080/14786435.2015.1028506,
Hf0.333Nb0.333Ta0.333Ti1Zr0.667,CAST,T,25,,8.2,BCC,301,903,990,,103,19,,10.1063/1.4966659,
Hf0.5Mo0.5Nb1Si0.1Ti1Zr1,CAST,C,25,,7.7,BCC+Sec.,442,1350,2150,,,,28,10.1016/j.jallcom.2015.11.091,
Hf0.5Mo0.5Nb1Si0.3Ti1Zr1,CAST,C,25,,7.5,BCC+Sec.,494,1370,1950,,,,23,10.1016/j.jallcom.2015.11.091,
Hf0.5Mo0.5Nb1Si0.5Ti1Zr1,CAST,C,25,,7.2,BCC+Sec.,524,1600,1900,,,,23,10.1016/j.jallcom.2015.11.091,
Hf0.5Mo0.5Nb1Si0.7Ti1Zr1,CAST,C,25,,7,BCC+Sec.,580,1550,1900,,,,12,10.1016/j.jallcom.2015.11.091,
Hf0.5Mo0.5Nb1Si0.9Ti1Zr1,CAST,C,25,,6.8,BCC+Sec.,640,1650,2000,,,,9,10.1016/j.jallcom.2015.11.091,
Hf0.5Mo0.5Nb1Ti1Zr1,CAST,C,25,,7.9,BCC+Sec.,400,1150,1500,,115,,,10.1016/j.jallcom.2015.11.091,
Hf0.5Mo0.5Nb1Ti1Zr1,CAST,C,25,,7.9,BCC,,1176,1538,,,,25,10.1016/j.intermet.2015.09.011,
Hf0.5Mo0.5Nb1Si0.1Ti1Zr1,,C,25,7.7,7.733358209,BCC+Sec.,442,1365,,,113.2624205,28,,https://doi.org/10.1016/j.dib.2018.11.111,Data in Brief 21 (2018) 2664¡V2678
Hf0.5Mo0.5Nb1Si0.1Ti1Zr1,CAST,C,25,7.715,7.733358209,BCC+Sec.,,1360,,,113.2624205,27.8,20,,Prof.Yeh-RHEA
Hf0.5Mo0.5Nb1Si0.3Ti1Zr1,,C,25,7.5,7.475316323,BCC+Sec.,494,1428,,,110.0986975,23,,https://doi.org/10.1016/j.dib.2018.11.111,Data in Brief 21 (2018) 2664¡V2678
Hf0.5Mo0.5Nb1Si0.3Ti1Zr1,CAST,C,25,7.445,7.475316323,BCC+Sec.,,1430,,,110.0986975,23.1,15,,Prof.Yeh-RHEA
Hf0.5Mo0.5Nb1Si0.5Ti1Zr1,,C,25,7.2,7.240792178,BCC+Sec.,524,1605,,,107.2233138,23,,https://doi.org/10.1016/j.dib.2018.11.111,Data in Brief 21 (2018) 2664¡V2678
Hf0.5Mo0.5Nb1Si0.5Ti1Zr1,CAST,C,25,7.165,7.240792178,BCC+Sec.,,1580,,,107.2233138,22.5,4,,Prof.Yeh-RHEA
Hf0.5Mo0.5Nb1Si0.7Ti1Zr1,,C,25,7,7.026710816,BCC+Sec.,580,1604,,,104.5985689,12,,https://doi.org/10.1016/j.dib.2018.11.111,Data in Brief 21 (2018) 2664¡V2678
Hf0.5Mo0.5Nb1Si0.7Ti1Zr1,CAST,C,25,6.675,7.026710816,BCC+Sec.,,1580,,,104.5985689,12.3,3,,Prof.Yeh-RHEA
Hf0.5Mo0.5Nb1Si0.9Ti1Zr1,,C,25,6.8,6.83051096,BCC+Sec.,640,1677,,,102.1930602,9,,https://doi.org/10.1016/j.dib.2018.11.111,Data in Brief 21 (2018) 2664¡V2678
Hf0.5Mo0.5Nb1Si0.9Ti1Zr1,CAST,C,25,6.83,6.83051096,BCC+Sec.,,1680,,,102.1930602,9,1,,Prof.Yeh-RHEA
Hf0.5Mo0.5Nb1Ti1Zr1,,C,25,7.9,7.872332196,BCC+Sec.,400,1178,,,114.9663113,25,,https://doi.org/10.1016/j.dib.2018.11.111,Data in Brief 21 (2018) 2664¡V2678
Hf0.5Mo0.5Nb1Ti1Zr1,CAST,C,25,7.845,7.872332196,BCC,,1180,,,114.9663113,24.6,19,,Prof.Yeh-RHEA
Hf0.5Mo0.5Nb1Ti1Zr1C0.1,,C,25,7.8,7.809851568,BCC+Sec.,,1183,2139,,,38,,https://doi.org/10.1016/j.dib.2018.11.111,Data in Brief 21 (2018) 2664¡V2678
Hf0.5Mo0.5Nb1Ti1Zr1C0.1,CAST,C,25,7.715,7.809851568,BCC+Sec.,,1180,,,,38.4,30,,Prof.Yeh-RHEA
Hf0.5Mo0.5Nb1Ti1Zr1C0.3,,C,25,7.7,7.688980345,BCC+Sec.,,1201,1965,,,33,,https://doi.org/10.1016/j.dib.2018.11.111,Data in Brief 21 (2018) 2664¡V2678
Hf0.5Mo0.5Nb1Ti1Zr1C0.3,CAST,C,25,7.7,7.688980345,BCC+Sec.,,1201,1965,,,33,25,,Prof.Yeh-RHEA
Hf0.5Nb0.25Ti2V1Zr1,CAST,C,25,6.57,6.604855931,BCC,,1115,,,99.82086809,50,50,,Prof.Yeh-RHEA
Hf0.5Nb0.5Ta0.5Ti1.5Zr1,,T,25,8.2,8.186719184,BCC,301,903,990,,103.2079302,19,,https://doi.org/10.1016/j.dib.2018.11.111,Data in Brief 21 (2018) 2664¡V2678
Hf0.5Nb0.5Ta0.5Ti1.5Zr1,CAST,T,25,8.13,8.186719184,BCC,,903,,,103.2079302,18.8,,,Prof.Yeh-RHEA
Hf0.5Nb0.5Ti2V1Zr1,CAST,C,25,6.66,6.700702897,BCC,,1065,,,100.0723702,50,50,,Prof.Yeh-RHEA
Hf0.5Nb0.667Ta0.333Ti1Zr0.833,WROUGHT,C,-269,,8.4,BCC,,2250,,,100,,,10.1016/j.msea.2017.10.073,
Hf0.5Nb0.667Ta0.333Ti1Zr0.833,WROUGHT,C,-269,,8.4,BCC,,2210,,,100,,,10.1016/j.msea.2017.10.073,
Hf0.5Nb0.667Ta0.333Ti1Zr0.833,WROUGHT,C,-196,,8.4,BCC,,1880,,,100,,,10.1016/j.msea.2017.10.073,
Hf0.5Nb0.667Ta0.333Ti1Zr0.833,WROUGHT,C,-196,,8.4,BCC,,1750,,,100,,,10.1016/j.msea.2017.10.073,
Hf0.5Nb0.667Ta0.333Ti1Zr0.833,WROUGHT,C,-153,,8.4,BCC,,1640,,,100,,,10.1016/j.msea.2017.10.073,
Hf0.5Nb0.667Ta0.333Ti1Zr0.833,WROUGHT,C,-153,,8.4,BCC,,1550,,,100,,,10.1016/j.msea.2017.10.073,
Hf0.5Nb0.667Ta0.333Ti1Zr0.833,WROUGHT,C,-103,,8.4,BCC,,1380,,,100,,,10.1016/j.msea.2017.10.073,
Hf0.5Nb0.667Ta0.333Ti1Zr0.833,WROUGHT,C,-103,,8.4,BCC,,1370,,,100,,,10.1016/j.msea.2017.10.073,
Hf0.5Nb0.667Ta0.333Ti1Zr0.833,WROUGHT,C,-43,,8.4,BCC,,1200,,,100,,,10.1016/j.msea.2017.10.073,
Hf0.5Nb0.667Ta0.333Ti1Zr0.833,WROUGHT,C,-43,,8.4,BCC,,1180,,,100,,,10.1016/j.msea.2017.10.073,
Hf0.5Nb0.667Ta0.333Ti1Zr0.833,WROUGHT,C,72,,8.4,BCC,,1040,,,100,,,10.1016/j.msea.2017.10.073,
Hf0.5Nb0.667Ta0.333Ti1Zr0.833,WROUGHT,C,72,,8.4,BCC,,1020,,,100,,,10.1016/j.msea.2017.10.073,
Hf0.5Nb0.667Ta0.333Ti1Zr0.833,WROUGHT,C,25,,8.4,BCC,,1150,,,100,,,10.1016/j.msea.2017.10.073,
Hf0.5Nb0.667Ta0.333Ti1Zr0.833,WROUGHT,C,25,,8.4,BCC,,1100,,,100,,,10.1016/j.msea.2017.10.073,
Hf0.5Nb0.667Ta0.333Ti1Zr0.833,WROUGHT,C,-269,,8.4,BCC,,2390,,,100,,,10.1016/j.msea.2017.10.073,
Hf0.5Nb0.667Ta0.333Ti1Zr0.833,WROUGHT,C,-196,,8.4,BCC,,1920,,,100,,,10.1016/j.msea.2017.10.073,
Hf0.5Nb0.667Ta0.333Ti1Zr0.833,WROUGHT,C,-153,,8.4,BCC,,1370,,,100,,,10.1016/j.msea.2017.10.073,
Hf0.5Nb0.667Ta0.333Ti1Zr0.833,WROUGHT,C,-103,,8.4,BCC,,1250,,,100,,,10.1016/j.msea.2017.10.073,
Hf0.5Nb0.667Ta0.333Ti1Zr0.833,WROUGHT,C,-43,,8.4,BCC,,1020,,,100,,,10.1016/j.msea.2017.10.073,
Hf0.5Nb0.667Ta0.333Ti1Zr0.833,WROUGHT,C,72,,8.4,BCC,,640,,,100,,,10.1016/j.msea.2017.10.073,
Hf0.5Nb0.667Ta0.333Ti1Zr0.833,WROUGHT,C,25,,8.4,BCC,,890,,,100,,,10.1016/j.msea.2017.10.073,
Hf0.5Nb0.75Ti2V1Zr1,CAST,C,25,6.77,6.787672183,BCC,,1025,,,100.3005773,50,50,,Prof.Yeh-RHEA
Hf0.5Nb1Ti2V1Zr1,CAST,C,25,6.84,6.866942619,BCC,,980,,,100.5085826,50,50,,Prof.Yeh-RHEA
Hf0.5Ti2V1Zr1,CAST,C,25,6.47,6.498698848,BCC,,1160,,,99.54231228,50,50,,Prof.Yeh-RHEA
Hf0.787Nb0.142Ta0.142Ti1Zr0.787,WROUGHT,T,25,,8.5,BCC,,540,995,,92,,,10.1080/21663831.2016.1221861,
Hf1Mo0.25Nb1Ta1Ti1Zr1,CAST,C,25,,9.9,BCC,395,1112,,96,115,50,,10.1016/j.matlet.2016.03.133,
Hf1Mo0.5Nb1Si0.3Ti1V0.5,CAST,C,1000,,8.5,BCC+Sec.,,398,430,,,,,10.1016/j.jallcom.2016.10.014,
Hf1Mo0.5Nb1Si0.3Ti1V0.5,CAST,C,25,,8.5,BCC+Sec.,,1617,2016,,,,,10.1016/j.jallcom.2016.10.014,
Hf1Mo0.5Nb1Si0.3Ti1V0.5,CAST,C,1200,,8.5,BCC+Sec.,,166,187,,,,,10.1016/j.jallcom.2016.10.014,
Hf1Mo0.5Nb1Si0.3Ti1V0.5,CAST,C,23,8.46,8.5,BCC+Sec.,,1617,,,,,,10.1016/j.actamat.2019.06.032,
Hf1Mo0.5Nb1Si0.3Ti1V0.5,CAST,C,1000,8.46,8.5,BCC+Sec.,,398,,,,,,10.1016/j.actamat.2019.06.032,
Hf1Mo0.5Nb1Si0.3Ti1V0.5,CAST,C,1200,8.46,8.5,BCC+Sec.,,166,,,,,,10.1016/j.actamat.2019.06.032,
Hf1Mo0.5Nb1Si0.5Ti1V0.5,CAST,C,1000,,8.2,BCC+Sec.,,614,696,,,,,10.1016/j.jallcom.2016.10.014,
Hf1Mo0.5Nb1Si0.5Ti1V0.5,CAST,C,25,,8.2,BCC+Sec.,,1787,2052,,,,,10.1016/j.jallcom.2016.10.014,
Hf1Mo0.5Nb1Si0.5Ti1V0.5,CAST,C,1200,,8.2,BCC+Sec.,,188,219,,,,,10.1016/j.jallcom.2016.10.014,
Hf1Mo0.5Nb1Si0.5Ti1V0.5,CAST,C,23,8.16,8.2,BCC+Sec.,,1787,,,,,,10.1016/j.actamat.2019.06.032,