FORMULA,PROPERTY: Processing method,PROPERTY: Type of test,Measuremet T (?°C),PROPERTY: Exp. Density (g/cm$^3$),PROPERTY: Calculated Density (g/cm$^3$),PROPERTY: Microstructure,PROPERTY: HV,PROPERTY: YS (MPa),PROPERTY: UTS (MPa),PROPERTY: Exp. Young modulus (GPa),PROPERTY: Calculated Young modulus (GPa),PROPERTY: Elongation (%),PROPERTY: Elongation plastic (%),Others: DOI,Others: Reference
Nb1 Ta1 Ti1 Zr1,CAST,T,25.0,,8.9,1,358.0,1144.0,1205.0,98.0,115.0,6.4,,10.3390/e21020114,
Nb1 Ta1 V1 W1,CAST,C,25.0,,12.9,1,,1530.0,1700.0,,206.0,12.0,,10.1016/j.msea.2016.07.102,
Nb1 Ti1 V0.3 Zr1,ANNEAL,C,25.0,,6.5,1,,866.0,,,96.0,,45.0,10.1016/j.matdes.2015.06.072,
Nb1 Ti1 V1 Zr1,ANNEAL,C,25.0,,6.5,1,,1104.0,,,100.0,,50.0,10.1016/j.matdes.2015.06.072,
Nb1 Ti1 Zr1,CAST,T,25.0,,6.5,1,295.0,956.0,991.0,88.0,94.0,,,10.3390/e21020114,
Nb1 Ti1 Zr1,CAST,C,25.0,,6.5,1,372.0,1223.0,,,94.0,,,10.1007/s12598-019-01310-6,
Nb1 Ti1 Zr1,ANNEAL,,,,6.5,1,,,,,94.0,51.0,,10.1007/s12598-019-01310-6,
Nb1 Ti1 Zr1,CAST,C,800.0,,6.5,1,,462.0,,,94.0,51.0,,10.1007/s12598-019-01310-6,
Nb1 Ti1 Zr1,CAST,C,1000.0,,6.5,1,,218.0,,,94.0,14.2,,10.1007/s12598-019-01310-6,
Nb1 Ta1 Ti1 V1,,C,25.0,9.2,9.169851378,1,,1092.0,,134.0,134.2138287,,,https://doi.org/10.1016/j.dib.2018.11.111,Data in Brief 21 (2018) 2664¡V2678
Nb1 Ta1 Ti1 V1,CAST,C,25.0,9.175,9.169851378,1,,1090.0,,106.0,134.2138287,50.0,50.0,,Prof.Yeh-RHEA
Nb1 Ta1 Ti1 V1 W1,CAST,C,25.0,11.0,11.10562283,1,,1420.0,,,186.5220515,20.0,16.0,,Prof.Yeh-RHEA
Nb1 Ta1 V1 W1,,C,25.0,12.9,12.88664201,1,492.0,1530.0,,,205.5328097,12.0,,https://doi.org/10.1016/j.dib.2018.11.111,Data in Brief 21 (2018) 2664¡V2678
Nb1 Ta1 V1 W1,CAST,C,25.0,12.6,12.88664201,1,,1530.0,,,205.5328097,12.0,12.0,,Prof.Yeh-RHEA
Mo1 Nb1 Ti1 V0.3,,C,25.0,7.3,7.557003239,1,,1455.0,,,173.2411084,25.0,,https://doi.org/10.1016/j.dib.2018.11.111,Data in Brief 21 (2018) 2664¡V2678
Mo1 Nb1 Ti1 V0.3,CAST,C,25.0,7.3,7.557003239,1,,1455.0,,,173.2411084,25.0,25.0,,Prof.Yeh-RHEA
Mo0.1 Nb1 Ti1 V0.3,,C,25.0,6.6,6.651535095,1,,932.0,,,120.4416961,45.0,,https://doi.org/10.1016/j.dib.2018.11.111,Data in Brief 21 (2018) 2664¡V2678
Mo0.1 Nb1 Ti1 V0.3,CAST,C,25.0,6.6,6.651535095,1,,932.0,,,120.4416961,45.0,45.0,,Prof.Yeh-RHEA
Mo0.3 Nb1 Ti1 V0.3,,C,25.0,6.8,6.902084765,1,,1312.0,,,135.0516804,50.0,,https://doi.org/10.1016/j.dib.2018.11.111,Data in Brief 21 (2018) 2664¡V2678
Mo0.3 Nb1 Ti1 V0.3,CAST,C,25.0,6.8,6.902084765,1,,1312.0,,,135.0516804,50.0,50.0,,Prof.Yeh-RHEA
Mo0.5 Nb1 Ti1 V0.3,,C,25.0,6.9,7.119829355,1,,1301.0,,,147.7487437,43.0,,https://doi.org/10.1016/j.dib.2018.11.111,Data in Brief 21 (2018) 2664¡V2678
Mo0.5 Nb1 Ti1 V0.3,CAST,C,25.0,6.9,7.119829355,1,,1301.0,,,147.7487437,43.0,43.0,,Prof.Yeh-RHEA
Mo0.7 Nb1 Ti1 V0.3,,C,25.0,7.1,7.310815865,1,,1436.0,,,158.8854972,27.0,,https://doi.org/10.1016/j.dib.2018.11.111,Data in Brief 21 (2018) 2664¡V2678
Mo0.7 Nb1 Ti1 V0.3,CAST,C,25.0,7.1,7.310815865,1,,1436.0,,,158.8854972,27.0,27.0,,Prof.Yeh-RHEA
Mo1.3 Nb1 Ti1 V0.3,,C,25.0,7.4,7.764873617,1,,1603.0,,,185.3623894,20.0,,https://doi.org/10.1016/j.dib.2018.11.111,Data in Brief 21 (2018) 2664¡V2678
Mo1.3 Nb1 Ti1 V0.3,CAST,C,25.0,7.4,7.764873617,1,,1603.0,,,185.3623894,20.0,20.0,,Prof.Yeh-RHEA
Mo1.5 Nb1 Ti1 V0.3,,C,25.0,7.5,7.886366337,1,,1576.0,,,192.4468398,8.0,,https://doi.org/10.1016/j.dib.2018.11.111,Data in Brief 21 (2018) 2664¡V2678
Mo1.5 Nb1 Ti1 V0.3,CAST,C,25.0,7.5,7.886366337,1,,1576.0,,,192.4468398,8.0,8.0,,Prof.Yeh-RHEA
Nb1 Ti1 V0.3 Zr1,,C,25.0,6.5,6.509762281,1,,866.0,,,95.93634497,45.0,,https://doi.org/10.1016/j.dib.2018.11.111,Data in Brief 21 (2018) 2664¡V2678
Nb1 Ti1 V0.3 Zr1,CAST,C,25.0,6.5,6.509762281,1,,866.0,,,95.93634497,45.0,45.0,,Prof.Yeh-RHEA
Nb1 Ti1 V2 Zr1,,,25.0,6.3,6.404764627,1,,918.0,,,104.6359102,50.0,,https://doi.org/10.1016/j.dib.2018.11.111,Data in Brief 21 (2018) 2664¡V2678
Nb1 Ti1 V2 Zr1,,,600.0,6.3,6.404764627,1,,571.0,,,104.6359102,50.0,,https://doi.org/10.1016/j.dib.2018.11.111,Data in Brief 21 (2018) 2664¡V2678
Nb1 Ti1 V2 Zr1,,,800.0,6.3,6.404764627,1,,240.0,,,104.6359102,50.0,,https://doi.org/10.1016/j.dib.2018.11.111,Data in Brief 21 (2018) 2664¡V2678
Nb1 Ti1 V2 Zr1,,,1000.0,6.3,6.404764627,1,,72.0,,,104.6359102,50.0,,https://doi.org/10.1016/j.dib.2018.11.111,Data in Brief 21 (2018) 2664¡V2678
Nb1 Ti1 V2 Zr1,,C,25.0,6.4,6.404764627,1,304.0,918.0,,,104.6359102,50.0,,https://doi.org/10.1016/j.dib.2018.11.111,Data in Brief 21 (2018) 2664¡V2678
Nb1 Ti1 V1 Zr1,,,25.0,6.3,6.458317279,1,,1105.0,,,100.1988131,50.0,,https://doi.org/10.1016/j.dib.2018.11.111,Data in Brief 21 (2018) 2664¡V2678
Nb1 Ti1 V1 Zr1,,,600.0,6.3,6.458317279,1,,834.0,,,100.1988131,50.0,,https://doi.org/10.1016/j.dib.2018.11.111,Data in Brief 21 (2018) 2664¡V2678
Nb1 Ti1 V1 Zr1,,,800.0,6.3,6.458317279,1,,187.0,,,100.1988131,50.0,,https://doi.org/10.1016/j.dib.2018.11.111,Data in Brief 21 (2018) 2664¡V2678
Nb1 Ti1 V1 Zr1,,,1000.0,6.3,6.458317279,1,,58.0,,,100.1988131,50.0,,https://doi.org/10.1016/j.dib.2018.11.111,Data in Brief 21 (2018) 2664¡V2678
Nb1 Ti1 V1 Zr1,,C,25.0,6.5,6.458317279,1,,1104.0,,,100.1988131,50.0,,https://doi.org/10.1016/j.dib.2018.11.111,Data in Brief 21 (2018) 2664¡V2678
Nb1 Ti1 V1 Zr1,,C,25.0,6.5,6.458317279,1,335.0,1105.0,,,100.1988131,50.0,,https://doi.org/10.1016/j.dib.2018.11.111,Data in Brief 21 (2018) 2664¡V2678
Nb1 Ti1 V1 Zr1,CAST,C,25.0,6.521,6.458317279,1,,1051.0,,,100.1988131,50.0,50.0,,Prof.Yeh-RHEA
Co1 Ni1,,C,25.0,8.875,8.870783937,0,,107.0,,,204.5271493,42.4,,,Prof.Yeh-3dtransitional
Co1 Cr1 Ni1,,C,25.0,8.275,8.278316008,0,,300.0,,,230.8052709,59.7,,,Prof.Yeh-3dtransitional
Co1 Cr1 Mn1 Ni1,,C,25.0,8.065,8.066118534,0,,282.0,,,222.1443966,43.8,,,Prof.Yeh-3dtransitional
Co1 Mn1 Ni1,,C,25.0,8.375,8.372859777,0,,231.0,,,202.1994178,38.3,,,Prof.Yeh-3dtransitional
Mo1 Nb1 Ta1 Ti0.25 W1,,C,25.0,,13.09564737,1,478.3,1109.0,1197.0,,241.768928,2.5,,https://doi.org/10.1016/j.dib.2018.11.111,Data in Brief 21 (2018) 2664¡V2678
Mo1 Nb1 Ta1 Ti0.5 W1,,C,25.0,,12.59689771,1,481.2,1211.0,1579.0,,234.47241,5.9,,https://doi.org/10.1016/j.dib.2018.11.111,Data in Brief 21 (2018) 2664¡V2678
Mo1 Nb1 Ta1 Ti0.75 W1,,C,25.0,,12.15284498,1,495.6,1305.0,1593.0,,227.9760874,8.4,,https://doi.org/10.1016/j.dib.2018.11.111,Data in Brief 21 (2018) 2664¡V2678
Mo1 Nb1 Ta1 Ti1 W1,,C,25.0,,11.75495916,1,507.5,1455.0,1910.0,,222.155169,11.5,,https://doi.org/10.1016/j.dib.2018.11.111,Data in Brief 21 (2018) 2664¡V2678