FORMULA,Process Method,Measurement Method,Measuremet T (?°C),Structure: Exp Density (g/cm^3),Structure: Calculated Density (g/cm^3),Structure: Microstructure,Mechanics: Hardness (HV),Mechanics: Yield strength (MPa),Mechanics: Ultra tensle strength (MPa),Mechanics: Exp Young modulus (GPa),Mechanics: Calculated Young modulus (GPa),Mechanics: Fracture Elongation (%),Mechanics: Plastic Elongation (%),Others: DOI,Others: Reference
Hf1Nb1Si0.5Ti1V1Zr1,,C,25,7.5,7.513774178,BCC+Sec.,464,1540,1643,,90.41466498,17,,https://doi.org/10.1016/j.dib.2018.11.111,Data in Brief 21 (2018) 2664¡V2678
Hf1Nb1Si0.5Ti1V1Zr1,CAST,C,25,7.8,7.513774178,BCC+Laves+Sec.,464,1540,1643,,90.41466498,17,4,,Prof.Yeh-RHEA
Hf1Nb1Ta1Ti1W1Zr1,CAST,C,25,11.23,11.19531061,BCC,,1550,,,148.4958845,26.3,24.5,,Prof.Yeh-RHEA
Hf1Nb1Ta1Ti1Zr1,,,25,9.9,9.893530612,BCC,,929,,,106.9115089,50,,https://doi.org/10.1016/j.dib.2018.11.111,Data in Brief 21 (2018) 2664¡V2678
Hf1Nb1Ta1Ti1Zr1,,,600,9.9,9.893530612,BCC,,675,,,106.9115089,50,,https://doi.org/10.1016/j.dib.2018.11.111,Data in Brief 21 (2018) 2664¡V2678
Hf1Nb1Ta1Ti1Zr1,,,800,9.9,9.893530612,BCC,,535,,,106.9115089,50,,https://doi.org/10.1016/j.dib.2018.11.111,Data in Brief 21 (2018) 2664¡V2678
Hf1Nb1Ta1Ti1Zr1,,,1000,9.9,9.893530612,BCC,,295,,,106.9115089,50,,https://doi.org/10.1016/j.dib.2018.11.111,Data in Brief 21 (2018) 2664¡V2678
Hf1Nb1Ta1Ti1Zr1,,,1200,9.9,9.893530612,BCC,,92,,,106.9115089,50,,https://doi.org/10.1016/j.dib.2018.11.111,Data in Brief 21 (2018) 2664¡V2678
Hf1Nb1Ta1Ti1Zr1,,,1400,9.9,9.893530612,BCC,,790,,,106.9115089,50,,https://doi.org/10.1016/j.dib.2018.11.111,Data in Brief 21 (2018) 2664¡V2678
Hf1Nb1Ta1Ti1Zr1,,C,25,9.9,9.893530612,BCC,335,1015,,111,106.9115089,50,,https://doi.org/10.1016/j.dib.2018.11.111,Data in Brief 21 (2018) 2664¡V2678
Hf1Nb1Ta1Ti1Zr1,,C,25,9.9,9.893530612,BCC,295,1073,,111,106.9115089,50,,https://doi.org/10.1016/j.dib.2018.11.111,Data in Brief 21 (2018) 2664¡V2678
Hf1Nb1Ta1Ti1Zr1,,C,25,9.9,9.893530612,BCC,390,929,,,106.9115089,50,,https://doi.org/10.1016/j.dib.2018.11.111,Data in Brief 21 (2018) 2664¡V2678
Hf1Nb1Ta1Zr1,,C,25,11.1,11.06162515,BCC,365,1315,,,104.9436304,,,https://doi.org/10.1016/j.dib.2018.11.111,Data in Brief 21 (2018) 2664¡V2678
Hf1Nb1Ta1Zr1,CAST,C,25,11.3,11.06162515,BCC,,1320,,,104.9436304,34,32,,Prof.Yeh-RHEA
Hf1Nb1Ti1V1Zr1,,,25,8.1,8.0598931,BCC+Sec.,,1170,,,94.98742358,30,,https://doi.org/10.1016/j.dib.2018.11.111,Data in Brief 21 (2018) 2664¡V2678
Hf1Nb1Ti1V1Zr1,,,300,8.1,8.0598931,BCC+Sec.,,1120,,,94.98742358,30,,https://doi.org/10.1016/j.dib.2018.11.111,Data in Brief 21 (2018) 2664¡V2678
Hf1Nb1Ti1V1Zr1,,,500,8.1,8.0598931,BCC+Sec.,,1253,,,94.98742358,38,,https://doi.org/10.1016/j.dib.2018.11.111,Data in Brief 21 (2018) 2664¡V2678
Hf1Nb1Ti1V1Zr1,,,700,8.1,8.0598931,BCC+Sec.,,1140,,,94.98742358,30,,https://doi.org/10.1016/j.dib.2018.11.111,Data in Brief 21 (2018) 2664¡V2678
Hf1Nb1Ti1V1Zr1,,,900,8.1,8.0598931,BCC+Sec.,,1157,,,94.98742358,40,,https://doi.org/10.1016/j.dib.2018.11.111,Data in Brief 21 (2018) 2664¡V2678
Hf1Nb1Ti1V1Zr1,,C,25,8.1,8.0598931,BCC+Sec.,388,1170,1463,,94.98742358,30,,https://doi.org/10.1016/j.dib.2018.11.111,Data in Brief 21 (2018) 2664¡V2678
Hf1Nb1Ti1V1Zr1,CAST,C,25,8.1,8.0598931,BCC,388,1170,1463,128,94.98742358,30,30,,Prof.Yeh-RHEA
Hf1Nb1Ti1Zr1,,T,25,8.4,8.389278152,BCC,,879,969,,89.37400368,15,,https://doi.org/10.1016/j.dib.2018.11.111,Data in Brief 21 (2018) 2664¡V2678
Hf1Nb1Ti1Zr1,ANNEAL,T,25,8.395,8.389278152,BCC,,879,,,89.37400368,14.9,,,Prof.Yeh-RHEA
Mo0.135Nb0.205Ti0.24V0.20Zr0.22,CAST,C,25,6.845,6.835399701,BCC,,1475.5,,,126.8650501,29.75,22,,Prof.Yeh-RHEA
Mo0.13Si0.05Ti0.35V0.31Zr0.16,CAST,C,25,5.91,5.88473401,BCC+Sec.,,1432,,,129.6372579,23.7,16.1,,Prof.Yeh-RHEA
Mo0.15Nb0.095Ti0.325V0.27Zr0.16,CAST,C,25,6.46,6.464510938,BCC,,1526,,,135.9988299,26.9,18.9,,Prof.Yeh-RHEA
Mo0.1Nb1Ti1V0.3Zr1,ANNEAL,C,25,,6.6,BCC,,932,,,102,,45,10.1016/j.matdes.2015.06.072,
Mo0.333Nb0.333Ti0.333V1Zr0.333,CAST,C,25,,6.9,BCC,,1418,2508,,138,24,,10.1007/s11837-012-0366-5,
Mo0.3Nb1Ti1V0.3Zr1,ANNEAL,C,25,,6.8,BCC,,1312,,,112,,50,10.1016/j.matdes.2015.06.072,
Mo0.3Nb1Ti1V1Zr1,ANNEAL,C,25,,6.7,BCC,,1289,,,114,,42,10.1016/j.matdes.2015.06.072,
Mo0.3Nb1Ti1V1Zr1,,C,25,6.7,6.685845916,BCC,,1289,,,114.0081503,42,,https://doi.org/10.1016/j.dib.2018.11.111,Data in Brief 21 (2018) 2664¡V2678
Mo0.3Nb1Ti1V1Zr1,CAST,C,25,6.7,6.685845916,BCC,,1289,,,114.0081503,42,42,,Prof.Yeh-RHEA
Mo0.5Nb0.5Ti0.5V1Zr0.5,CAST,C,25,,7,BCC,,1538,3176,,139,23,,10.1007/s11837-012-0366-5,
Mo0.5Nb1Ti1V0.3Zr1,ANNEAL,C,25,,6.9,BCC,,1301,,,122,,43,10.1016/j.matdes.2015.06.072,
Mo0.5Nb1Ti1V1Zr1,ANNEAL,C,25,,6.8,BCC,,1473,,,122,,32,10.1016/j.matdes.2015.06.072,
Mo0.5Nb1Ti1V1Zr1,,C,25,6.8,6.822863505,BCC,,1473,,,122.3241237,32,,https://doi.org/10.1016/j.dib.2018.11.111,Data in Brief 21 (2018) 2664¡V2678
Mo0.5Nb1Ti1V1Zr1,CAST,C,25,6.8,6.822863505,BCC,,1473,,,122.3241237,32,32,,Prof.Yeh-RHEA
Mo0.667Nb0.667Ti0.667V1Zr0.667,CAST,C,25,,7.1,BCC,,1735,3300,,140,20,,10.1007/s11837-012-0366-5,
Mo0.7Nb1Ti1V0.3Zr1,ANNEAL,C,25,,7.1,BCC,,1436,,,130,,27,10.1016/j.matdes.2015.06.072,
Mo0.7Nb1Ti1V1Zr1,ANNEAL,C,25,,6.9,BCC,,1706,,,130,,32,10.1016/j.matdes.2015.06.072,
Mo0.7Nb1Ti1V1Zr1,,C,25,7,6.949676036,BCC,,1706,,,130.0207242,32,,https://doi.org/10.1016/j.dib.2018.11.111,Data in Brief 21 (2018) 2664¡V2678
Mo0.7Nb1Ti1V1Zr1,CAST,C,25,7,6.949676036,BCC,,1706,,,130.0207242,32,32,,Prof.Yeh-RHEA
Mo1.3Nb1Ti1V1Zr1,,C,25,7.3,7.279138633,BCC,,1496,,,150.0167131,30,,https://doi.org/10.1016/j.dib.2018.11.111,Data in Brief 21 (2018) 2664¡V2678
Mo1.3Nb1Ti1V1Zr1,CAST,C,25,7.3,7.279138633,BCC,,1496,,,150.0167131,30,30,,Prof.Yeh-RHEA
Mo1.5Nb1Ti1V1Zr1,,C,25,7.4,7.374721493,BCC,,1603,,,155.8178991,20,,https://doi.org/10.1016/j.dib.2018.11.111,Data in Brief 21 (2018) 2664¡V2678
Mo1.5Nb1Ti1V1Zr1,CAST,C,25,7.4,7.374721493,BCC,,1603,,,155.8178991,20,20,,Prof.Yeh-RHEA
Mo1.7Nb1Ti1V1Zr1,,C,25,7.5,7.464302832,BCC,,1645,,,161.2548363,15,,https://doi.org/10.1016/j.dib.2018.11.111,Data in Brief 21 (2018) 2664¡V2678
Mo1.7Nb1Ti1V1Zr1,CAST,C,25,7.5,7.464302832,BCC,,1645,,,161.2548363,15,15,,Prof.Yeh-RHEA
Mo1Nb0.588Ti0.588V0.588Zr0.588,ANNEAL,C,25,,7.5,BCC,,1645,,,161,,15,10.1016/j.matdes.2015.06.072,
Mo1Nb0.5Ti0.5V0.5Zr0.5,ANNEAL,C,25,,7.6,BCC,,1765,,,169,,12,10.1016/j.matdes.2015.06.072,
Mo1Nb0.667Ti0.667V0.2Zr0.667,ANNEAL,C,25,,7.5,BCC,,1576,,,159,,8,10.1016/j.matdes.2015.06.072,
Mo1Nb0.667Ti0.667V0.667Zr0.667,ANNEAL,C,25,,7.4,BCC,,1603,,,156,,20,10.1016/j.matdes.2015.06.072,
Mo1Nb0.769Ti0.769V0.231Zr0.769,ANNEAL,C,25,,7.4,BCC,,1603,,,153,,20,10.1016/j.matdes.2015.06.072,
Mo1Nb0.769Ti0.769V0.769Zr0.769,ANNEAL,C,25,,7.3,BCC,,1496,,,150,,30,10.1016/j.matdes.2015.06.072,
Mo1Nb1Re0.5W1,CAST,C,25,,13.7,BCC,473,896,,,298,10.4,7.08,10.1016/j.jallcom.2018.11.111,
Mo1Nb1Si0.25Ta1W1,POWDER,C,25,,12.9,BCC+Sec.,567,1826,,,,16.5,10.5,10.1007/s10853-019-03567-9,
Mo1Nb1Si0.25Ta1W1,POWDER,,200,,12.9,BCC+Sec.,425,,,,,,,10.1007/s10853-019-03567-9,
Mo1Nb1Si0.25Ta1W1,POWDER,,400,,12.9,BCC+Sec.,420,,,,,,,10.1007/s10853-019-03567-9,
Mo1Nb1Si0.25Ta1W1,POWDER,,600,,12.9,BCC+Sec.,425,,,,,,,10.1007/s10853-019-03567-9,
Mo1Nb1Si0.25Ta1W1,POWDER,,800,,12.9,BCC+Sec.,399.2,,,,,,,10.1007/s10853-019-03567-9,
Mo1Nb1Si0.5Ta1W1,POWDER,C,25,,12.2,BCC+Sec.,697,1883,,,,11,5.8,10.1007/s10853-019-03567-9,
Mo1Nb1Si0.5Ta1W1,POWDER,,200,,12.2,BCC+Sec.,535,,,,,,,10.1007/s10853-019-03567-9,
Mo1Nb1Si0.5Ta1W1,POWDER,,400,,12.2,BCC+Sec.,560,,,,,,,10.1007/s10853-019-03567-9,
Mo1Nb1Si0.5Ta1W1,POWDER,,600,,12.2,BCC+Sec.,540,,,,,,,10.1007/s10853-019-03567-9,
Mo1Nb1Si0.5Ta1W1,POWDER,,800,,12.2,BCC+Sec.,550.5,,,,,,,10.1007/s10853-019-03567-9,
Mo1Nb1Si0.75Ta1W1,POWDER,C,25,,11.6,BCC+Sec.,682.6,2483,,,,6.2,1.6,10.1007/s10853-019-03567-9,
Mo1Nb1Si0.75Ta1W1,POWDER,,200,,11.6,BCC+Sec.,640,,,,,,,10.1007/s10853-019-03567-9,
Mo1Nb1Si0.75Ta1W1,POWDER,,400,,11.6,BCC+Sec.,600,,,,,,,10.1007/s10853-019-03567-9,
Mo1Nb1Si0.75Ta1W1,POWDER,,600,,11.6,BCC+Sec.,650,,,,,,,10.1007/s10853-019-03567-9,
Mo1Nb1Si0.75Ta1W1,POWDER,,800,,11.6,BCC+Sec.,597.3,,,,,,,10.1007/s10853-019-03567-9,
Mo1Nb1Si0.75Ta1W1,POWDER,C,1200,,11.6,BCC+Sec.,,960,,,,22.7,,10.1007/s10853-019-03567-9,
Mo1Nb1Ta1Ti0.25W1,CAST,C,25,,13.1,BCC,478.3,1109,1197,,242,,,10.1016/j.msea.2017.12.004,
Mo1Nb1Ta1Ti0.5W1,CAST,C,25,,12.6,BCC,481.2,1211,1578,,234,,,10.1016/j.msea.2017.12.004,
Mo1Nb1Ta1Ti0.75W1,CAST,C,25,,12.2,BCC,495.6,1304,1593,,228,,,10.1016/j.msea.2017.12.004,
Mo1Nb1Ta1Ti1,ANNEAL,,,,10,BCC,407,,,,179,,,10.1016/j.matdes.2018.06.003,
Mo1Nb1Ta1Ti1,CAST,,,,10,BCC,431,,,,179,,,10.1016/j.matdes.2018.06.003,
Mo1Nb1Ta1Ti1,ANNEAL,C,20,,10,BCC,,1210,,,179,,,10.1016/j.actamat.2019.06.006,
Mo1Nb1Ta1Ti1,ANNEAL,C,60,,10,BCC,,1071,,,179,,,10.1016/j.actamat.2019.06.006,
Mo1Nb1Ta1Ti1,ANNEAL,C,100,,10,BCC,,1029,,,179,,,10.1016/j.actamat.2019.06.006,
Mo1Nb1Ta1Ti1,ANNEAL,C,200,,10,BCC,,868,,,179,,,10.1016/j.actamat.2019.06.006,
Mo1Nb1Ta1Ti1,ANNEAL,C,300,,10,BCC,,732,,,179,,,10.1016/j.actamat.2019.06.006,
Mo1Nb1Ta1Ti1,ANNEAL,C,400,,10,BCC,,685,,,179,,,10.1016/j.actamat.2019.06.006,
Mo1Nb1Ta1Ti1,ANNEAL,C,600,,10,BCC,,593,,,179,,,10.1016/j.actamat.2019.06.006,
Mo1Nb1Ta1Ti1,ANNEAL,C,800,,10,BCC,,564,,,179,,,10.1016/j.actamat.2019.06.006,
Mo1Nb1Ta1Ti1,ANNEAL,C,1000,,10,BCC,,539,,,179,,,10.1016/j.actamat.2019.06.006,
Mo1Nb1Ta1Ti1V1,CAST,C,25,,9.4,BCC,,1400,2450,,171,,,10.1016/j.jallcom.2016.11.188,
Mo1Nb1Ta1Ti1V1W1,CAST,C,600,,11,BCC,,973,1590,,209,,,10.1016/j.intermet.2017.01.007,
Mo1Nb1Ta1Ti1V1W1,CAST,C,800,,11,BCC,,791.3,1180,,209,,,10.1016/j.intermet.2017.01.007,
Mo1Nb1Ta1Ti1V1W1,CAST,C,1000,,11,BCC,,752.8,1105,,209,,,10.1016/j.intermet.2017.01.007,
Mo1Nb1Ta1Ti1V1W1,CAST,C,1200,,11,BCC,,659,696,,209,,,10.1016/j.intermet.2017.01.007,
Mo1Nb1Ta1Ti1V1W1,CAST,C,25,,11,BCC,,1515,2135,,209,,,10.1016/j.intermet.2017.01.007,
Mo1Nb1Ta1Ti1V1W1,CAST,C,23,10.91,11,BCC,,1515,,,209,,,10.1016/j.actamat.2019.06.032,
Mo1Nb1Ta1Ti1V1W1,CAST,C,1000,10.91,11,BCC,,753,,,209,,,10.1016/j.actamat.2019.06.032,
Mo1Nb1Ta1Ti1V1W1,CAST,C,1200,10.91,11,BCC,,659,,,209,,,10.1016/j.actamat.2019.06.032,
Mo1Nb1Ta1Ti1W1,CAST,C,25,,11.8,BCC,507.5,1455,1910,,222,,,10.1016/j.msea.2017.12.004,
Mo1Nb1Ta1Ti1W1,ANNEAL,,,,11.8,BCC,482,,,,222,,,10.1016/j.matdes.2018.06.003,
Mo1Nb1Ta1Ti1W1,CAST,,,,11.8,BCC,446,,,,222,,,10.1016/j.matdes.2018.06.003,
Mo1Nb1Ta1Ti1W1,CAST,C,600,,11.8,BCC,,689,1681,,222,,,10.1016/j.intermet.2017.01.007,
Mo1Nb1Ta1Ti1W1,CAST,C,800,,11.8,BCC,,674,1618,,222,,,10.1016/j.intermet.2017.01.007,
Mo1Nb1Ta1Ti1W1,CAST,C,1000,,11.8,BCC,,620,1426,,222,,,10.1016/j.intermet.2017.01.007,
Mo1Nb1Ta1Ti1W1,CAST,C,1200,,11.8,BCC,,586,814,,222,,,10.1016/j.intermet.2017.01.007,
Mo1Nb1Ta1Ti1W1,CAST,C,25,,11.8,BCC,,1343,2005,,222,,,10.1016/j.intermet.2017.01.007,
Mo1Nb1Ta1Ti1W1,CAST,C,23,11.72,11.8,BCC,,1343,,,222,,,10.1016/j.actamat.2019.06.032,
Mo1Nb1Ta1Ti1W1,CAST,C,1000,11.72,11.8,BCC,,620,,,222,,,10.1016/j.actamat.2019.06.032,
Mo1Nb1Ta1Ti1W1,CAST,C,1200,11.72,11.8,BCC,,586,,,222,,,10.1016/j.actamat.2019.06.032,
Mo1Nb1Ta1Ti1Zr1,ANNEAL,C,25,,9.1,BCC+BCC,,1100,1200,,,,,10.1016/j.scriptamat.2016.10.028,
Mo1Nb1Ta1Ti1Zr1,CAST,C,25,,9.1,BCC+BCC,,1375,1450,,,,,10.1016/j.scriptamat.2016.10.028,
Mo1Nb1Ta1Ti1Zr1,CAST,C,25,,9.1,BCC+BCC,,1390,,,,,,10.1016/j.msec.2016.12.057,
Mo1Nb1Ta1V1,ANNEAL,C,25,,10.7,BCC,504,1525,2400,,186,21,,10.3390/e18050189,
Mo1Nb1Ta1V1W1,POWDER,C,25,,12.4,BCC,,2612,3472,,229,2,,10.1016/j.msea.2017.12.021,
Mo1Nb1Ta1V1W1,CAST,C,25,,12.4,BCC,536,1246,1270,,229,13,,10.1016/j.intermet.2011.01.004,
Mo1Nb1Ta1V1W1,CAST,C,600,,12.4,BCC,,862,,,229,17,,10.1016/j.intermet.2011.01.004,
Mo1Nb1Ta1V1W1,CAST,C,800,,12.4,BCC,,846,,,229,19,,10.1016/j.intermet.2011.01.004,
Mo1Nb1Ta1V1W1,CAST,C,1000,,12.4,BCC,,842,,,229,7.5,,10.1016/j.intermet.2011.01.004,
Mo1Nb1Ta1V1W1,CAST,C,1200,,12.4,BCC,,735,,,229,40,,10.1016/j.intermet.2011.01.004,
Mo1Nb1Ta1V1W1,CAST,C,1400,,12.4,BCC,,656,,,229,40,,10.1016/j.intermet.2011.01.004,
Mo1Nb1Ta1V1W1,CAST,C,1600,,12.4,BCC,,477,,,229,,,10.1016/j.intermet.2011.01.004,
Mo1Nb1Ta1W1,CAST,C,25,,13.7,BCC,,996,1148,,250,2,,10.1016/j.msea.2017.12.004,
Mo1Nb1Ta1W1,CAST,C,25,,13.7,BCC,454,1058,1211,,250,40,,10.1016/j.intermet.2011.01.004,
Mo1Nb1Ta1W1,CAST,C,600,,13.7,BCC,,561,,,250,40,,10.1016/j.intermet.2011.01.004,
Mo1Nb1Ta1W1,CAST,C,800,,13.7,BCC,,552,,,250,40,,10.1016/j.intermet.2011.01.004,
Mo1Nb1Ta1W1,CAST,C,1000,,13.7,BCC,,548,,,250,40,,10.1016/j.intermet.2011.01.004,
Mo1Nb1Ta1W1,CAST,C,1200,,13.7,BCC,,506,,,250,40,,10.1016/j.intermet.2011.01.004,
Mo1Nb1Ta1W1,CAST,C,1400,,13.7,BCC,,421,,,250,40,,10.1016/j.intermet.2011.01.004,
Mo1Nb1Ta1W1,CAST,C,1600,,13.7,BCC,,405,,,250,,,10.1016/j.intermet.2011.01.004,
Mo1Nb1Ta1W1,POWDER,C,25,,13.7,BCC,504.5,1217,,,250,7.5,3.8,10.1007/s10853-019-03567-9,
Mo1Nb1Ta1W1,POWDER,,200,,13.7,BCC,420,,,,250,,,10.1007/s10853-019-03567-9,
Mo1Nb1Ta1W1,POWDER,,400,,13.7,BCC,425,,,,250,,,10.1007/s10853-019-03567-9,
Mo1Nb1Ta1W1,POWDER,,600,,13.7,BCC,340,,,,250,,,10.1007/s10853-019-03567-9,
Mo1Nb1Ta1W1,POWDER,,800,,13.7,BCC,335.5,,,,250,,,10.1007/s10853-019-03567-9,
Mo1Nb1Ti1V0.25Zr1,CAST,C,25,,7.3,BCC,,1776,3893,,142,30,,10.1007/s11837-012-0366-5,
Mo1Nb1Ti1V0.3Zr1,ANNEAL,C,25,,7.2,BCC,,1455,,,142,,25,10.1016/j.matdes.2015.06.072,
Mo1Nb1Ti1V0.5Zr1,CAST,C,25,,7.2,BCC,,1647,3307,,142,28,,10.1007/s11837-012-0366-5,
Mo1Nb1Ti1V0.75Zr1,CAST,C,25,,7.2,BCC,,1708,3929,,141,29,,10.1007/s11837-012-0366-5,
Mo1Nb1Ti1V1,CAST,C,25,,7.3,BCC,441,1200,2050,,167,26,,10.3390/e16020870,
Mo1Nb1Ti1V1Zr1,ANNEAL,C,25,,7.1,BCC,,1779,,,141,,32,10.1016/j.matdes.2015.06.072,
Mo1Nb1Ti1V1Zr1,CAST,C,25,,7.1,BCC,,1786,3828,,,,,10.1007/s11837-012-0366-5,
Mo1Nb1Ti1Zr1,CAST,C,25,,7.3,BCC,,1592,3450,,143,34,,10.1007/s11837-012-0366-5,
Mo1Ta1Ti1V1,CAST,C,25,,9.6,BCC,,1221,1454,,189,,,10.4028/www.scientific.net/MSF.898.638,
Mo2Nb1Ti1V1Zr1,,C,25,7.6,7.588602845,BCC,,1765,,,168.7989452,12,,https://doi.org/10.1016/j.dib.2018.11.111,Data in Brief 21 (2018) 2664¡V2678
Mo2Nb1Ti1V1Zr1,CAST,C,25,7.6,7.588602845,BCC,,1765,,,168.7989452,12,12,,Prof.Yeh-RHEA
Mo1Nb1Re1Ta1W1,CAST,C,25,15.138,14.97957603,BCC,,1000,1320,,288.2287913,1.7,1.7,,Prof.Yeh-RHEA
Mo1Nb1Ta1Ti0.25W1,CAST,C,25,13.15,13.09564737,BCC,,1110,,,241.768928,2.5,2.5,,Prof.Yeh-RHEA
Mo1Nb1Ta1Ti0.5W1,CAST,C,25,12.7,12.59689771,BCC,,1210,,,234.47241,5.9,5.9,,Prof.Yeh-RHEA
Mo1Nb1Ta1Ti0.75W1,CAST,C,25,12.2,12.15284498,BCC,,1300,,,227.9760874,8.4,8.4,,Prof.Yeh-RHEA
Mo1Nb1Ta1Ti1V1,CAST,C,25,9.29,9.368307877,BCC,,1400,,,170.7411036,33,33,,Prof.Yeh-RHEA
Mo1Nb1Ta1Ti1V1W1,CAST,C,25,10.9,10.96726778,BCC,,1520,,,208.9870566,10.6,10.6,,Prof.Yeh-RHEA
Mo1Nb1Ta1Ti1W1,CAST,C,25,11.9,11.75495916,BCC,,1340,,,222.155169,14.1,14.1,,Prof.Yeh-RHEA
Mo1Nb1Ta1Ti1Zr1,CAST,C,25,9.315,9.132901292,BCC+HCP,,1390,,,151.2718952,6,2,,Prof.Yeh-RHEA
Mo1Nb1Ta1V1,,C,25,10.7,10.68399594,BCC,504,1525,2400,,185.5314881,21,,https://doi.org/10.1016/j.dib.2018.11.111,Data in Brief 21 (2018) 2664¡V2678
Mo1Nb1Ta1V1,CAST,C,25,10.35,10.68399594,BCC,,1530,,,185.5314881,21.8,20,,Prof.Yeh-RHEA
Mo1Nb1Ta1V1W1,,,25,12.4,12.37616704,BCC,,1246,,,229.2405322,2,,https://doi.org/10.1016/j.dib.2018.11.111,Data in Brief 21 (2018) 2664¡V2678
Mo1Nb1Ta1V1W1,,,600,12.4,12.37616704,BCC,,862,,,229.2405322,13,,https://doi.org/10.1016/j.dib.2018.11.111,Data in Brief 21 (2018) 2664¡V2678
Mo1Nb1Ta1V1W1,,,800,12.4,12.37616704,BCC,,846,,,229.2405322,17,,https://doi.org/10.1016/j.dib.2018.11.111,Data in Brief 21 (2018) 2664¡V2678
Mo1Nb1Ta1V1W1,,,1000,12.4,12.37616704,BCC,,842,,,229.2405322,19,,https://doi.org/10.1016/j.dib.2018.11.111,Data in Brief 21 (2018) 2664¡V2678
Mo1Nb1Ta1V1W1,,,1200,12.4,12.37616704,BCC,,735,,,229.2405322,8,,https://doi.org/10.1016/j.dib.2018.11.111,Data in Brief 21 (2018) 2664¡V2678
Mo1Nb1Ta1V1W1,,,1400,12.4,12.37616704,BCC,,656,,,229.2405322,40,,https://doi.org/10.1016/j.dib.2018.11.111,Data in Brief 21 (2018) 2664¡V2678
Mo1Nb1Ta1V1W1,,,1600,12.4,12.37616704,BCC,,477,,,229.2405322,40,,https://doi.org/10.1016/j.dib.2018.11.111,Data in Brief 21 (2018) 2664¡V2678
Mo1Nb1Ta1V1W1,,C,25,12.4,12.37616704,BCC,536,1246,1270,,229.2405322,2,,https://doi.org/10.1016/j.dib.2018.11.111,Data in Brief 21 (2018) 2664¡V2678
Mo1Nb1Ta1V1W1,CAST,C,25,12.4,12.37616704,BCC,535.5,1246,,,229.2405322,1.7,1.7,,Prof.Yeh-RHEA
Mo1Nb1Ta1W1,,,25,13.8,13.65986331,BCC,,1058,,,250.0231927,3,,https://doi.org/10.1016/j.dib.2018.11.111,Data in Brief 21 (2018) 2664¡V2678
Mo1Nb1Ta1W1,,,600,13.8,13.65986331,BCC,,561,,,250.0231927,40,,https://doi.org/10.1016/j.dib.2018.11.111,Data in Brief 21 (2018) 2664¡V2678
Mo1Nb1Ta1W1,,,800,13.8,13.65986331,BCC,,552,,,250.0231927,40,,https://doi.org/10.1016/j.dib.2018.11.111,Data in Brief 21 (2018) 2664¡V2678
Mo1Nb1Ta1W1,,,1000,13.8,13.65986331,BCC,,548,,,250.0231927,40,,https://doi.org/10.1016/j.dib.2018.11.111,Data in Brief 21 (2018) 2664¡V2678
Mo1Nb1Ta1W1,,,1200,13.8,13.65986331,BCC,,506,,,250.0231927,40,,https://doi.org/10.1016/j.dib.2018.11.111,Data in Brief 21 (2018) 2664¡V2678
Mo1Nb1Ta1W1,,,1400,13.8,13.65986331,BCC,,421,,,250.0231927,40,,https://doi.org/10.1016/j.dib.2018.11.111,Data in Brief 21 (2018) 2664¡V2678
Mo1Nb1Ta1W1,,,1600,13.8,13.65986331,BCC,,405,,,250.0231927,40,,https://doi.org/10.1016/j.dib.2018.11.111,Data in Brief 21 (2018) 2664¡V2678
Mo1Nb1Ta1W1,,C,25,13.7,13.65986331,BCC,454,1058,1211,,250.0231927,2,,https://doi.org/10.1016/j.dib.2018.11.111,Data in Brief 21 (2018) 2664¡V2678
Mo1Nb1Ta1W1,CAST,C,25,13.8,13.65986331,BCC,454,1058,,,250.0231927,2.1,2.1,,Prof.Yeh-RHEA
Mo1Nb1Ti1V1,,C,25,7.3,7.343754914,BCC,441,1200,,,166.5144243,26,,https://doi.org/10.1016/j.dib.2018.11.111,Data in Brief 21 (2018) 2664¡V2678
Mo1Nb1Ti1V1,CAST,C,25,7.3,7.343754914,BCC,441,1200,,170,166.5144243,26,25,,Prof.Yeh-RHEA
Mo1Nb1Ti1V0.25Zr1,,C,25,7.3,7.256075719,BCC,,1776,3893,,142.2153355,30,,https://doi.org/10.1016/j.dib.2018.11.111,Data in Brief 21 (2018) 2664¡V2678
Mo1Nb1Ti1V0.25Zr1,CAST,C,25,7.255,7.256075719,BCC,,1780,,,142.2153355,30.1,19.3,,Prof.Yeh-RHEA
Mo1Nb1Ti1V0.50Zr1,,C,25,7.2,7.207997756,BCC,,1647,3307,,141.6122782,28,,https://doi.org/10.1016/j.dib.2018.11.111,Data in Brief 21 (2018) 2664¡V2678
Mo1Nb1Ti1V0.50Zr1,CAST,C,25,7.205,7.207997756,BCC,,1650,,,141.6122782,28.1,18,,Prof.Yeh-RHEA
Mo1Nb1Ti1V0.75Zr1,,C,25,7.2,7.163833007,BCC,,1708,3929,,141.0583056,29,,https://doi.org/10.1016/j.dib.2018.11.111,Data in Brief 21 (2018) 2664¡V2678
Mo1Nb1Ti1V0.75Zr1,CAST,C,25,7.165,7.163833007,BCC,,1710,,,141.0583056,29.3,15.5,,Prof.Yeh-RHEA
Mo1Nb1Ti1V1.0Zr1,,C,25,7.1,7.123122391,BCC,,1786,3828,,140.5476593,26,,https://doi.org/10.1016/j.dib.2018.11.111,Data in Brief 21 (2018) 2664¡V2678
Mo1Nb1Ti1V1.0Zr1,CAST,C,25,7.125,7.123122391,BCC,,1790,,,140.5476593,25.9,16.7,,Prof.Yeh-RHEA
Mo1Nb1Ti1V1.5Zr1,,C,25,7.1,7.050560244,BCC,,1735,3300,,139.6374891,20,,https://doi.org/10.1016/j.dib.2018.11.111,Data in Brief 21 (2018) 2664¡V2678
Mo1Nb1Ti1V1.5Zr1,CAST,C,25,7.055,7.050560244,BCC,,1735,,,139.6374891,20.1,13.2,,Prof.Yeh-RHEA
Mo1Nb1Ti1V2.0Zr1,,C,25,7,6.987813039,BCC,,1538,3176,,138.8504308,23,,https://doi.org/10.1016/j.dib.2018.11.111,Data in Brief 21 (2018) 2664¡V2678
Mo1Nb1Ti1V2.0Zr1,CAST,C,25,6.985,6.987813039,BCC,,1540,,,138.8504308,23.2,15.5,,Prof.Yeh-RHEA
Mo1Nb1Ti1V3.0Zr1,,C,25,6.9,6.884746957,BCC,,1418,2508,,137.55764,24,,https://doi.org/10.1016/j.dib.2018.11.111,Data in Brief 21 (2018) 2664¡V2678
Mo1Nb1Ti1V3.0Zr1,CAST,C,25,6.885,6.884746957,BCC,,1420,,,137.55764,23.6,16.4,,Prof.Yeh-RHEA
Mo1Nb1Ti1V1Zr1,,C,25,7.1,7.123122391,BCC,,1779,,,140.5476593,32,,https://doi.org/10.1016/j.dib.2018.11.111,Data in Brief 21 (2018) 2664¡V2678
Mo1Nb1Ti1V1Zr1,CAST,C,25,7.1,7.123122391,BCC,,1779,,,140.5476593,32,32,,Prof.Yeh-RHEA
Mo1Nb1Ti1Zr1,,C,25,7.3,7.308611099,BCC,,1592,3450,,142.8743035,34,,https://doi.org/10.1016/j.dib.2018.11.111,Data in Brief 21 (2018) 2664¡V2678
Mo1Nb1Ti1Zr1,CAST,C,25,7.305,7.308611099,BCC,,1590,,,142.8743035,33.5,21.9,,Prof.Yeh-RHEA
Nb0.105Si0.065Ti0.35V0.13Zr0.35,CAST,C,25,5.687,5.749268063,BCC+Sec.,,1110.5,,,91.14498459,21.7,15.6,,Prof.Yeh-RHEA
Nb0.333Ta0.667Ti0.667Zr1,CAST,T,25,,8.6,BCC+Sec.,489,,843,93,,0,,10.3390/e21020114,