FORMULA,PROPERTY: Processing method,PROPERTY: Type of test,Measuremet T (?°C),PROPERTY: Exp. Density (g/cm$^3$),PROPERTY: Calculated Density (g/cm$^3$),PROPERTY: Microstructure,PROPERTY: HV,PROPERTY: YS (MPa),PROPERTY: UTS (MPa),PROPERTY: Exp. Young modulus (GPa),PROPERTY: Calculated Young modulus (GPa),PROPERTY: Elongation (%),PROPERTY: Elongation plastic (%),Others: DOI,Others: Reference
Co1 Cr1 Fe1 Mo0.2 Ni1,ANNEAL,T,25.0,,8.3,0,,,895.0,,232.0,32.0,,10.3390/e21050448,
Co1 Cr1 Fe1 Ni1,POWDER,,,,8.2,0,,,,,226.0,39.0,,10.3390/coatings9010016,
Co1 Cr1 Fe1 Ni1,CAST,,,,8.2,0,94.7,,,,226.0,,,10.1016/j.matdes.2019.107698,
Co1 Cr1 Fe1 Ni1,CAST,C,25.0,,8.2,0,,,,,226.0,,,10.1016/j.jallcom.2013.12.210,
Co1 Cr1 Fe1 Ni1,ANNEAL,,25.0,,8.2,0,116.0,,,,226.0,58.9,,10.1016/j.jallcom.2009.08.090,
Co1 Cr1 Fe1 Ni1,ANNEAL,,25.0,,8.2,0,113.0,,,,226.0,70.0,,10.1016/j.jallcom.2009.08.090,
Co1 Cr1 Fe1 Ni1,CAST,C,25.0,,8.2,0,168.9,163.0,,,226.0,83.0,,10.1016/j.intermet.2019.106550,
Co1 Cr1 Fe1 Ni1,CAST,T,25.0,,8.2,0,,148.0,413.0,,226.0,63.0,,10.1016/j.intermet.2015.01.004,
Co1 Cr1 Fe1 Ni1,,,,,8.2,0,,,,,226.0,72.0,,10.1016/j.intermet.2012.03.005,
Co1 Cr1 Fe1 Ni1,WROUGHT,T,25.0,,8.2,0,,631.0,732.0,210.0,226.0,78.0,,10.1016/j.actamat.2019.04.017,
Co1 Cr1 Fe1 Ni1,WROUGHT,T,25.0,,8.2,0,,494.0,732.0,210.0,226.0,68.6,,10.1016/j.actamat.2019.04.017,
Co1 Cr1 Fe1 Ni1,WROUGHT,T,25.0,,8.2,0,,448.0,672.0,210.0,226.0,62.0,,10.1016/j.actamat.2019.04.017,
Co1 Cr1 Fe1 Ni1,WROUGHT,T,25.0,,8.2,0,,273.0,567.0,210.0,226.0,61.6,,10.1016/j.actamat.2019.04.017,
Co1 Cr1 Fe1 Ni1,WROUGHT,T,25.0,,8.2,0,,172.0,504.0,210.0,226.0,,,10.1016/j.actamat.2019.04.017,
Co1 Cr1 Fe1 Ni1,CAST,T,25.0,,8.2,0,,155.0,472.0,,,,,10.1016/j.actamat.2016.06.063,
Co1 Cr1 Fe1 Ni1,ANNEAL,T,25.0,,8.2,0,,190.0,453.0,,226.0,39.0,,10.1016/j.actamat.2015.08.076,
Co1 Cr1 Fe1 Ni1,WROUGHT,T,25.0,,8.2,0,,274.0,708.0,,226.0,51.0,,10.1016/j.actamat.2014.08.026,
Co1 Cr1 Fe1 Ni1,WROUGHT,T,20.0,,8.2,0,,446.0,664.0,189.0,226.0,65.0,,10.1007/s40843-018-9373-y,
Co1 Cr1 Fe1 Ni1,WROUGHT,T,-73.0,,8.2,0,,488.0,790.0,194.0,226.0,85.0,,10.1007/s40843-018-9373-y,
Co1 Cr1 Fe1 Ni1,WROUGHT,T,-196.0,,8.2,0,,590.0,1070.0,204.0,226.0,105.0,,10.1007/s40843-018-9373-y,
Co1 Cr1 Fe1 Ni1,WROUGHT,T,-223.0,,8.2,0,,,1152.0,,226.0,80.0,,10.1007/s40843-018-9373-y,
Co1 Cr1 Fe1 Ni1,WROUGHT,T,-253.0,,8.2,0,,,1240.0,,226.0,,,10.1007/s40843-018-9373-y,
Co1 Cr1 Fe1 Ni1,WROUGHT,T,-269.0,,8.2,0,,680.0,1251.0,221.0,226.0,,,10.1007/s40843-018-9373-y,
Co1 Cr1 Fe1 Ni1 Pd1,CAST,,,,9.2,0,295.0,,,,201.0,,,10.3390/e21030288,
Co1 Cr1 Fe1 Ni1 Ti0.2,WROUGHT,T,25.0,,7.9,0,,700.0,1240.0,,218.0,36.0,,10.1016/j.actamat.2018.11.049,
Co1 Cr1 Fe1 Ni1 Ti0.2,WROUGHT,T,-196.0,,7.9,0,,860.0,1580.0,,218.0,46.0,,10.1016/j.actamat.2018.11.049,
Co1 Cr1 Fe1 Ni1 Ti0.3,WROUGHT,T,25.0,,7.8,0,263.0,540.0,772.0,,214.0,60.0,,10.1016/j.msea.2019.138181,
Co1 Cr1 Fe1 Ni1 Ti0.3,WROUGHT,,,,7.8,0,185.0,,,,214.0,,,10.1016/j.msea.2019.138181,
Co1 Cr1 Fe1 Ni1 Ti1,CAST,C,25.0,,7.2,0,,,2020.0,135.0,195.0,,9.0,10.1016/j.msea.2008.12.053,
Co1 Cr1 Fe1 Ni1 W0.2,CAST,C,25.0,,8.9,0,244.0,335.0,,,238.0,52.0,,10.1016/j.intermet.2019.106550,
Co1 Cr1 Mn1 Ni1,WROUGHT,T,25.0,,8.1,0,,282.0,694.0,,222.0,44.0,,10.1016/j.actamat.2014.08.026,
Co1 Cr1 Mo1 Nb1 Ti0.4,CAST,C,25.0,,8.3,1,,,1771.0,,212.0,,,10.1007/s11665-017-2799-z,
Co1 Cr1 Ni1,WROUGHT,T,25.0,,8.3,0,468.0,1100.0,,,,,,10.1016/j.actamat.2018.12.015,
Co1 Cr1 Ni1,WROUGHT,T,25.0,,8.3,0,326.0,597.0,,,,,,10.1016/j.actamat.2018.12.015,
Co1 Cr1 Ni1,WROUGHT,T,25.0,,8.3,0,223.0,346.0,,,,68.0,,10.1016/j.actamat.2018.12.015,
Co1 Cr1 Ni1,WROUGHT,T,25.0,,8.3,0,,300.0,860.0,,,60.0,,10.1016/j.actamat.2014.08.026,
Co1 Cu1 Fe1 Mn1 Ni1,CAST,,800.0,,8.4,0,,,,,189.0,,14.0,10.1016/j.msea.2019.04.096,
Co1 Cu1 Fe1 Mn1 Ni1,CAST,,900.0,,8.4,0,,,,,189.0,,,10.1016/j.msea.2019.04.096,
Co1 Cu1 Fe1 Mn1 Ni1,CAST,,100.0,,8.4,0,,,,,189.0,,,10.1016/j.msea.2019.04.096,
Co1 Cu1 Fe1 Mn1 Ni1,CAST,T,25.0,,8.4,0,208.0,,478.0,,189.0,,,10.1016/j.matdes.2012.08.019,
Co1 Cu1 Fe1 Mn1 Ni1 Sn0.03,CAST,T,25.0,,8.4,0,192.0,,465.0,,187.0,,18.0,10.1016/j.matdes.2012.08.019,
Co1 Cu1 Fe1 Ni1,CAST,T,25.0,,8.6,0,,,480.0,,187.0,,15.0,10.1016/j.msea.2012.03.080,
Co1 Cu1 Fe1 Ni1 Sn0.02,CAST,T,25.0,,8.6,0,,,548.0,,185.0,,17.0,10.1016/j.msea.2012.03.080,
Co1 Fe1 Mn1 Ni1,WROUGHT,T,25.0,,8.2,0,,170.0,550.0,,204.0,41.0,,10.1016/j.actamat.2014.08.026,
Co1 Fe1 Ni1,CAST,C,25.0,,8.5,0,125.0,204.0,,,207.0,,,10.1016/j.jmmm.2014.07.023,
Co1 Fe1 Ni1,CAST,C,25.0,,8.5,0,125.0,209.0,,,207.0,31.0,,10.1016/j.jmmm.2014.07.023,
Co1 Fe1 Ni1,WROUGHT,T,25.0,,8.5,0,,,,,,,,10.1016/j.intermet.2019.106477,
Co1 Fe1 Ni1,WROUGHT,T,25.0,,8.5,0,,276.0,540.0,,207.0,15.0,,10.1016/j.intermet.2019.106477,
Co1 Fe1 Ni1,WROUGHT,T,25.0,,8.5,0,,217.0,498.0,,207.0,51.0,,10.1016/j.intermet.2019.106477,
Co1 Fe1 Ni1,WROUGHT,T,25.0,,8.5,0,,201.0,430.0,,207.0,47.0,,10.1016/j.intermet.2019.106477,
Co1 Fe1 Ni1,WROUGHT,T,25.0,,8.5,0,,,,161.0,207.0,44.5,,10.1016/j.actamat.2019.04.017,
Co1 Fe1 Ni1,WROUGHT,T,25.0,,8.5,0,,211.0,513.0,,207.0,,,10.1016/j.actamat.2014.08.026,
Co1 Fe1 Ni1 Si0.25,CAST,C,25.0,,7.7,0,149.0,196.0,,,186.0,,,10.1016/j.jmmm.2014.07.023,
Co1 Fe1 Ni1 V1,CAST,,25.0,,7.8,0,238.0,,,,184.0,,,10.1016/j.jallcom.2015.07.185,
Co1 Mn1 Ni1,WROUGHT,T,25.0,,8.4,0,,333.0,569.0,190.0,202.0,38.0,,10.1016/j.actamat.2019.04.017,
Co1 Mn1 Ni1,WROUGHT,T,25.0,,8.4,0,,601.0,608.0,190.0,202.0,40.0,,10.1016/j.actamat.2019.04.017,
Co1 Mn1 Ni1,WROUGHT,T,25.0,,8.4,0,,321.0,566.0,190.0,202.0,24.0,,10.1016/j.actamat.2019.04.017,
Co1 Mn1 Ni1,WROUGHT,T,25.0,,8.4,0,,267.0,506.0,190.0,202.0,50.5,,10.1016/j.actamat.2019.04.017,
Co1 Mn1 Ni1,WROUGHT,T,25.0,,8.4,0,,231.0,653.0,,202.0,62.5,,10.1016/j.actamat.2014.08.026,
Co1 Cr1 Cu0.5 Fe1 Ni1,,,25.0,8.3,8.262106793,0,172.0,,,,214.7852899,,,https://doi.org/10.1016/j.dib.2018.11.111,Data in Brief 21 (2018) 2664¡V2678
Co1 Cr1 Cu1 Fe1,,,25.0,8.2,8.196451779,0,134.0,,,,207.5263345,,,https://doi.org/10.1016/j.dib.2018.11.111,Data in Brief 21 (2018) 2664¡V2678
Co1 Cr1 Cu1 Fe1 Ni1,,C,25.0,8.3,8.331325886,0,132.0,230.0,,206.0,206.0965696,,,https://doi.org/10.1016/j.dib.2018.11.111,Data in Brief 21 (2018) 2664¡V2678
Co1 Cr1 Cu1 Fe1 Ni1,,C,25.0,8.3,8.331325886,0,286.0,230.0,888.0,206.0,206.0965696,51.0,,https://doi.org/10.1016/j.dib.2018.11.111,Data in Brief 21 (2018) 2664¡V2678
Co1 Cr1 Cu1 Fe1 Ni1,,,25.0,8.3,8.331325886,0,286.0,,,,206.0965696,,,https://doi.org/10.1016/j.dib.2018.11.111,Data in Brief 21 (2018) 2664¡V2678
Co1 Cr1 Cu1 Fe1 Ni1,,C,25.0,8.335,8.331325886,0,132.0,230.0,,55.6,206.0965696,,,,Prof.Yeh-3dtransitional
Co1 Cr1 Cu1 Fe1 Ni1,,C,25.0,8.335,8.331325886,0,286.0,230.0,,55.6,206.0965696,,,,Prof.Yeh-3dtransitional
Co1 Cr1 Cu1 Fe1 Ni1 Ti1,,C,25.0,7.4,7.431738253,0,,1272.0,1272.0,191.0,184.9488198,2.0,,https://doi.org/10.1016/j.dib.2018.11.111,Data in Brief 21 (2018) 2664¡V2678
Co1 Cr1 Cu1 Fe1 Ni1 Ti0.5,,C,25.0,7.8,7.821724444,0,,700.0,1650.0,198.0,194.1167208,29.0,,https://doi.org/10.1016/j.dib.2018.11.111,Data in Brief 21 (2018) 2664¡V2678
Co1 Cr1 Cu1 Fe1 Ni1 Ti0.5,,C,25.0,7.8,7.821724444,0,,700.0,1650.0,198.0,194.1167208,22.0,,https://doi.org/10.1016/j.dib.2018.11.111,Data in Brief 21 (2018) 2664¡V2678
Co1 Cr1 Cu1 Fe1 Ni1 Ti0.5,,C,25.0,7.825,7.821724444,0,,700.0,,93.1,194.1167208,21.6,,,Prof.Yeh-3dtransitional
Co1 Cr1 Cu1 Fe1 Ni1 Ti0.5,,C,25.0,7.825,7.821724444,0,,700.0,,92.5,194.1167208,29.0,,,Prof.Yeh-3dtransitional
Co1 Cr1 Cu1 Fe1 Ni1 Ti1 V1 Zr1,,,25.0,7.1,7.079151692,2,680.0,,,,153.7173046,,,https://doi.org/10.1016/j.dib.2018.11.111,Data in Brief 21 (2018) 2664¡V2678
Co1 Cr1 Fe1 Mn1 Ni1,,T,25.0,8.0,8.027647867,0,176.0,208.0,,,219.8823361,62.0,,https://doi.org/10.1016/j.dib.2018.11.111,Data in Brief 21 (2018) 2664¡V2678
Co1 Cr1 Fe1 Mn1 Ni1,,C,25.0,8.0,8.027647867,0,144.0,230.0,,,219.8823361,75.0,,https://doi.org/10.1016/j.dib.2018.11.111,Data in Brief 21 (2018) 2664¡V2678
Co1 Cr1 Fe1 Mn1 Ni1,,C,25.0,8.025,8.027647867,0,174.5,207.5,,,219.8823361,,,,Prof.Yeh-3dtransitional
Co1 Cr1 Fe1 Mn1 Ni1,,C,25.0,8.025,8.027647867,0,144.0,230.0,,,219.8823361,,,,Prof.Yeh-3dtransitional
Co1 Cr1 Fe1 Mn1 Ni1 V0.25,,C,25.0,7.9,7.920592137,0,151.0,200.0,,,214.7184545,75.0,,https://doi.org/10.1016/j.dib.2018.11.111,Data in Brief 21 (2018) 2664¡V2678
Co1 Cr1 Fe1 Mn1 Ni1 V0.25,,C,25.0,7.925,7.920592137,0,151.0,200.0,,,214.7184545,75.0,,,Prof.Yeh-3dtransitional
Co1 Cr1 Fe1 Mn1 Ni1 V0.5,,C,25.0,7.8,7.824929394,0,186.0,620.0,,,210.1041187,75.0,,https://doi.org/10.1016/j.dib.2018.11.111,Data in Brief 21 (2018) 2664¡V2678
Co1 Cr1 Fe1 Mn1 Ni1 V0.5,,C,25.0,7.825,7.824929394,0,186.0,620.0,,,210.1041187,75.0,,,Prof.Yeh-3dtransitional
Co1 Cr1 Fe1 Mo1 Ni1 Ti1 V1 Zr1,,,25.0,7.3,7.312556405,2,850.0,,,,179.6364026,,,https://doi.org/10.1016/j.dib.2018.11.111,Data in Brief 21 (2018) 2664¡V2678
Co1 Cr1 Fe1 Ni1,,T,25.0,8.2,8.175043328,0,,148.0,413.0,,225.7139231,48.0,,https://doi.org/10.1016/j.dib.2018.11.111,Data in Brief 21 (2018) 2664¡V2678
Co1 Cr1 Fe1 Ni1,,,25.0,8.2,8.175043328,0,116.0,,,,225.7139231,,,https://doi.org/10.1016/j.dib.2018.11.111,Data in Brief 21 (2018) 2664¡V2678
Co1 Cr1 Fe1 Ni1,,,25.0,8.2,8.175043328,0,113.0,,,,225.7139231,,,https://doi.org/10.1016/j.dib.2018.11.111,Data in Brief 21 (2018) 2664¡V2678
Co1 Cr1 Fe1 Ni1,,T,25.0,8.2,8.175043328,0,,274.0,708.0,,225.7139231,39.0,,https://doi.org/10.1016/j.dib.2018.11.111,Data in Brief 21 (2018) 2664¡V2678
Co1 Cr1 Fe1 Ni1,ANNEAL,C,,,8.175043328,2,453.0,,,,225.7139231,,,,Paper_Collection_4_element
Co1 Cr1 Fe1 Ni1,ANNEAL,C,,,8.175043328,2,445.0,,,,225.7139231,,,,Paper_Collection_4_element
Co1 Cr1 Fe1 Ni1,ANNEAL,C,,,8.175043328,2,449.0,,,,225.7139231,,,,Paper_Collection_4_element
Co1 Cr1 Fe1 Ni1,ANNEAL,C,,,8.175043328,2,290.0,,,,225.7139231,,,,Paper_Collection_4_element
Co1 Cr1 Fe1 Ni1,ANNEAL,C,,,8.175043328,2,207.0,,,,225.7139231,,,,Paper_Collection_4_element
Co1 Cr1 Fe1 Ni1,ANNEAL,C,,,8.175043328,2,187.0,,,,225.7139231,,,,Paper_Collection_4_element
Co1 Cr1 Fe1 Ni1,ANNEAL,C,,,8.175043328,2,147.0,,,,225.7139231,,,,Paper_Collection_4_element
Co1 Cr1 Fe1 Ni1,ANNEAL,C,,,8.175043328,2,137.0,,,,225.7139231,,,,Paper_Collection_4_element
Co1 Cr1 Fe1 Ni1,,C,25.0,8.175,8.175043328,0,,147.5,,,225.7139231,48.0,,,Prof.Yeh-3dtransitional
Co1 Cr1 Fe1 Ni1 Ti1,,C,25.0,7.2,7.151614207,0,,,2020.0,203.0,195.170853,9.0,,https://doi.org/10.1016/j.dib.2018.11.111,Data in Brief 21 (2018) 2664¡V2678
Co1 Cr1 Mn1 Ni1,,T,25.0,8.1,8.066118534,0,,282.0,694.0,,222.1443966,44.0,,https://doi.org/10.1016/j.dib.2018.11.111,Data in Brief 21 (2018) 2664¡V2678
Co1 Cr1 Mo1 Nb1 Ti0.4,CAST,C,25.0,8.37,8.31263293,1,,1770.0,,,211.8559662,4.62,0.1,,Prof.Yeh-RHEA
Co1 Cr1 Ni1,,T,25.0,8.3,8.278316008,0,,300.0,860.0,,230.8052709,60.0,,https://doi.org/10.1016/j.dib.2018.11.111,Data in Brief 21 (2018) 2664¡V2678
Co1 Cu1 Fe1 Mn1 Ni1,,T,25.0,8.4,8.387119793,0,208.0,,478.0,,189.2450445,14.0,,https://doi.org/10.1016/j.dib.2018.11.111,Data in Brief 21 (2018) 2664¡V2678
Co1 Cu1 Fe1 Mn1 Ni1 Sn0.03,,T,25.0,8.4,8.371893016,0,192.0,,465.0,,187.3172383,18.0,,https://doi.org/10.1016/j.dib.2018.11.111,Data in Brief 21 (2018) 2664¡V2678
Co1 Cu1 Fe1 Ni1,,T,25.0,8.6,8.631376366,0,,,480.0,,186.9016752,15.0,,https://doi.org/10.1016/j.dib.2018.11.111,Data in Brief 21 (2018) 2664¡V2678
Co1 Cu1 Fe1 Ni1 Sn0.02,,T,25.0,8.6,8.61561643,0,,,548.0,,185.2964464,17.0,,https://doi.org/10.1016/j.dib.2018.11.111,Data in Brief 21 (2018) 2664¡V2678
Co1 Cu1 Fe1 Ni1 Ti1 V1 Zr1,,,25.0,7.1,7.065686549,2,630.0,,,,138.730642,,,https://doi.org/10.1016/j.dib.2018.11.111,Data in Brief 21 (2018) 2664¡V2678
Co1 Fe1 Mn1 Ni1,,T,25.0,8.2,8.245835379,0,,170.0,550.0,,204.4519856,41.0,,https://doi.org/10.1016/j.dib.2018.11.111,Data in Brief 21 (2018) 2664¡V2678
Co1 Fe1 Mo1 Ni1 Ti1 V1 Zr1,,,25.0,7.3,7.326488519,2,790.0,,,,168.1805135,,,https://doi.org/10.1016/j.dib.2018.11.111,Data in Brief 21 (2018) 2664¡V2678
Co1 Fe1 Ni1,,C,25.0,8.5,8.524402703,0,125.0,204.0,,,206.7823096,,,https://doi.org/10.1016/j.dib.2018.11.111,Data in Brief 21 (2018) 2664¡V2678
Co1 Fe1 Ni1,,C,25.0,8.5,8.524402703,0,125.0,209.0,,,206.7823096,,,https://doi.org/10.1016/j.dib.2018.11.111,Data in Brief 21 (2018) 2664¡V2678
Co1 Fe1 Ni1,,T,25.0,8.5,8.524402703,0,,211.0,513.0,,206.7823096,31.0,,https://doi.org/10.1016/j.dib.2018.11.111,Data in Brief 21 (2018) 2664¡V2678
Co1 Fe1 Ni1,,C,25.0,8.525,8.524402703,0,124.5,208.5,,,206.7823096,,,,Prof.Yeh-3dtransitional
Co1 Fe1 Ni1,,C,25.0,8.525,8.524402703,0,124.5,203.5,,,206.7823096,,,,Prof.Yeh-3dtransitional
Co1 Fe1 Ni1 Si0.25,,C,25.0,7.7,7.724929168,0,149.0,196.0,,,186.1641344,,,https://doi.org/10.1016/j.dib.2018.11.111,Data in Brief 21 (2018) 2664¡V2678
Co1 Fe1 Ni1 Si0.25,,C,25.0,7.725,7.724929168,0,149.0,195.5,,,186.1641344,,,,Prof.Yeh-3dtransitional
Co1 Fe1 Ni1 V1,,,25.0,7.8,7.82745361,0,238.0,,,,183.9197768,,,https://doi.org/10.1016/j.dib.2018.11.111,Data in Brief 21 (2018) 2664¡V2678
Co1 Mn1 Ni1,,T,25.0,8.4,8.372859777,0,,231.0,653.0,,202.1994178,38.0,,https://doi.org/10.1016/j.dib.2018.11.111,Data in Brief 21 (2018) 2664¡V2678
Cr0.5 Fe0.5 Ni1 Ti0.15,WROUGHT,T,25.0,,7.8,0,335.0,672.0,982.0,,212.0,37.0,,10.1016/j.msea.2019.138181,
Cr0.5 Fe0.5 Ni1 Ti0.15,WROUGHT,,,,7.8,0,204.0,,,,212.0,,,10.1016/j.msea.2019.138181,
Cr1 Cu1 Fe1 Mn1 Ni1,CAST,T,25.0,,8.1,2,,628.0,950.0,,,,,10.1016/j.matchemphys.2018.09.033,
Cr1 Cu1 Fe1 Mn1 Ni1,ANNEAL,T,25.0,,8.1,2,,545.0,690.0,,,14.5,,10.1016/j.matchemphys.2018.09.033,
Cr1 Cu1 Fe1 Mn1 Ni1,ANNEAL,T,25.0,,8.1,2,,534.0,682.0,,,5.0,,10.1016/j.matchemphys.2018.09.033,
Cr1 Cu1 Fe1 Mn1 Ni1,ANNEAL,T,25.0,,8.1,2,,525.0,680.0,,,5.2,,10.1016/j.matchemphys.2018.09.033,
Cr1 Cu1 Fe1 Mn1 Ni1,ANNEAL,T,25.0,,8.1,2,,517.0,677.0,,,4.3,,10.1016/j.matchemphys.2018.09.033,
Cr1 Cu1 Fe1 Mn1 Ni1,ANNEAL,T,25.0,,8.1,2,,502.0,671.0,,,4.6,,10.1016/j.matchemphys.2018.09.033,
Cr1 Cu1 Fe1 Mn1 Ni1,WROUGHT,T,25.0,,8.1,2,398.0,1190.0,1300.0,,,4.9,,10.1016/j.matchar.2019.05.043,
Cr1 Cu1 Fe1 Mn1 Ni1,WROUGHT,T,25.0,,8.1,2,367.0,1170.0,1270.0,,,14.0,,10.1016/j.matchar.2019.05.043,
Cr1 Cu1 Fe1 Mn1 Ni1,WROUGHT,T,25.0,,8.1,2,312.0,1030.0,1190.0,,,,,10.1016/j.matchar.2019.05.043,
Cr1 Cu1 Fe1 Mn1 Ni1,WROUGHT,T,25.0,,8.1,2,271.0,970.0,1110.0,,,,,10.1016/j.matchar.2019.05.043,
Cr1 Cu1 Fe1 Mn1 Ni1,WROUGHT,T,25.0,,8.1,2,183.0,850.0,960.0,,,,,10.1016/j.matchar.2019.05.043,
Cr1 Cu1 Fe1 Mn1 Ni1,WROUGHT,T,25.0,,8.1,2,162.0,470.0,640.0,,,,,10.1016/j.matchar.2019.05.043,
Cr1 Cu1 Fe1 Mo1 Ni1,CAST,,25.0,,8.7,0,263.0,,,,236.0,,,10.1016/j.jallcom.2008.07.124,
Cr1 Fe1 Mn1 Ni1,,,,,7.8,0,,,,,222.0,,,10.1016/j.jallcom.2019.04.296,
Cr1 Fe1 Ni1 Ti0.4,CAST,C,25.0,,7.4,1,600.3,2475.41,,,212.0,6.5,,10.1557/jmr.2019.40,
Cr1 Fe1 Ni1 Ti0.5,CAST,C,25.0,,7.3,1,709.6,2380.79,,,208.0,,,10.1557/jmr.2019.40,
Cr1 Fe1 Ni1 Ti0.6,CAST,C,25.0,,7.2,1,718.2,1923.15,,,204.0,,,10.1557/jmr.2019.40,
Cr1 Mo1 Nb1 Ti1,ANNEAL,C,20.0,,7.6,1,,1630.0,,,196.0,,,10.1016/j.actamat.2019.06.006,
Cr1 Mo1 Nb1 Ti1,ANNEAL,C,200.0,,7.6,1,,1268.0,,,196.0,,,10.1016/j.actamat.2019.06.006,
Cr1 Mo1 Nb1 Ti1,ANNEAL,C,400.0,,7.6,1,,1115.0,,,196.0,,,10.1016/j.actamat.2019.06.006,
Cr1 Mo1 Nb1 Ti1,ANNEAL,C,600.0,,7.6,1,,1062.0,,,196.0,,,10.1016/j.actamat.2019.06.006,
Cr1 Mo1 Nb1 Ti1,ANNEAL,C,800.0,,7.6,1,,1058.0,,,196.0,,,10.1016/j.actamat.2019.06.006,
Cr1 Mo1 Ta1 Ti1,ANNEAL,,,,9.9,1,555.0,,,,,,,10.1016/j.matdes.2018.06.003,
Cr1 Mo1 Ta1 Ti1,CAST,,,,9.9,1,539.0,,,,,,,10.1016/j.matdes.2018.06.003,
Cr1 Nb1 Ta1 Ti1,CAST,,,,9.4,1,495.0,,,,162.0,,,10.1016/j.matdes.2018.06.003,
Cr1 Nb1 Ti1 W1,CAST,,,,9.9,1,630.0,,,,217.0,,,10.1016/j.matdes.2018.06.003,
Cr1 Cu1 Fe1 Mo1 Ni1,,,25.0,8.7,8.717125668,0,263.0,,,,236.4032086,,,https://doi.org/10.1016/j.dib.2018.11.111,Data in Brief 21 (2018) 2664¡V2678
Cr1 Fe1 Mo0.1 Ni3,ANNEAL,C,,,8.37944787,0,228.0,,,,221.9870389,,,,Paper_Collection_4_element
Cr1 Fe1 Mo0.1 Ni4,ANNEAL,C,,,8.46289346,0,270.0,,,,218.5055024,,,,Paper_Collection_4_element
Cr1 Fe1 Mo0.1 Ni5,ANNEAL,C,,,8.523525141,0,257.0,,,,215.9758131,,,,Paper_Collection_4_element
Cr1 Fe1 Mo0.1 Ni6,ANNEAL,C,,,8.569573707,0,224.0,,,,214.054564,,,,Paper_Collection_4_element
Cr1 Fe1 Mo0.2 Ni3,ANNEAL,C,,,8.427662237,0,238.0,,,,224.777957,,,,Paper_Collection_4_element
Cr1 Fe1 Mo0.2 Ni6,ANNEAL,C,,,8.597486364,0,262.0,,,,215.9890197,,,,Paper_Collection_4_element
Cr1 Fe1 Mo0.3 Ni3,ANNEAL,C,,,8.473425645,0,268.0,,,,227.4269998,,,,Paper_Collection_4_element
Cr1 Nb1 Ti1.89 V0.56,CAST,C,25.0,6.17,6.161703106,1,,990.0,,,142.0401973,50.0,50.0,,Prof.Yeh-RHEA
Cu1 Mn1 Ni1 Zn0.25,CAST,C,25.0,,8.3,0,109.0,140.0,,,169.0,65.0,,10.1016/j.jallcom.2015.07.285,
Cu1 Mn1 Ni1 Zn0.333,CAST,C,25.0,,8.3,0,147.0,215.0,,,167.0,60.0,,10.1016/j.jallcom.2015.07.285,
Cu1 Fe1 Ni1 Ti1 V1 Zr1,,,25.0,6.8,6.846139111,2,590.0,,,,130.0139483,,,https://doi.org/10.1016/j.dib.2018.11.111,Data in Brief 21 (2018) 2664¡V2678
Fe1 Mn1 Ni1,WROUGHT,T,25.0,,8.1,0,,529.0,613.0,182.0,203.0,36.0,,10.1016/j.actamat.2019.04.017,
Fe1 Mn1 Ni1,WROUGHT,T,25.0,,8.1,0,,522.0,601.0,182.0,203.0,25.0,,10.1016/j.actamat.2019.04.017,
Fe1 Mn1 Ni1,WROUGHT,T,25.0,,8.1,0,,460.0,599.0,182.0,203.0,25.0,,10.1016/j.actamat.2019.04.017,
Fe1 Mn1 Ni1,WROUGHT,T,25.0,,8.1,0,,407.0,536.0,182.0,203.0,27.0,,10.1016/j.actamat.2019.04.017,
Fe1 Mn1 Ni1,WROUGHT,T,25.0,,8.1,0,,372.0,542.0,182.0,203.0,26.0,,10.1016/j.actamat.2019.04.017,
Fe1 Mn1 Ni1,WROUGHT,T,25.0,,8.1,0,,322.0,554.0,182.0,203.0,31.0,,10.1016/j.actamat.2019.04.017,
Fe1 Mn1 Ni1,WROUGHT,T,25.0,,8.1,0,,221.0,602.0,,203.0,49.0,,10.1016/j.actamat.2014.08.026,
Fe1 Mn1 Ni1,,T,25.0,8.1,8.058794341,0,,221.0,602.0,,203.0095102,36.0,,https://doi.org/10.1016/j.dib.2018.11.111,Data in Brief 21 (2018) 2664¡V2678
Fe1 Ni1,,C,25.0,8.375,8.372690058,0,,185.0,,,205.7010234,35.8,,,Prof.Yeh-3dtransitional
Co1 Fe1 Ni1,,C,25.0,8.525,8.524402703,0,,211.0,,,206.7823096,30.8,,,Prof.Yeh-3dtransitional
Co1 Cr1 Fe1 Ni1,,C,25.0,8.175,8.175043328,0,,274.0,,,225.7139231,38.6,,,Prof.Yeh-3dtransitional
Co1 Fe1 Mn1 Ni1,,C,25.0,8.245,8.245835379,0,,170.0,,,204.4519856,41.1,,,Prof.Yeh-3dtransitional
Fe1 Mn1 Ni1,,C,25.0,8.055,8.058794341,0,,221.0,,,203.0095102,35.8,,,Prof.Yeh-3dtransitional
Hf0.25 Nb0.125 Ti1 V0.5 Zr0.5,CAST,C,25.0,,6.6,1,332.4,1115.0,,,100.0,50.0,,10.1007/s40195-019-00921-3,
Hf0.25 Nb0.25 Ti1 V0.5 Zr0.5,CAST,C,25.0,,6.7,1,322.5,1065.0,,,100.0,50.0,,10.1007/s40195-019-00921-3,
Hf0.25 Nb0.25 Ti1 V0.5 Zr0.5,CAST,C,600.0,,6.7,1,322.5,718.0,,,100.0,50.0,,10.1007/s40195-019-00921-3,
Hf0.25 Nb0.25 Ti1 V0.5 Zr0.5,CAST,C,800.0,,6.7,1,322.5,135.0,,,100.0,50.0,,10.1007/s40195-019-00921-3,
Hf0.25 Nb0.375 Ti1 V0.5 Zr0.5,CAST,C,25.0,,6.8,1,318.9,1025.0,,,100.0,50.0,,10.1007/s40195-019-00921-3,
Hf0.25 Nb0.5 Ti1 V0.5 Zr0.5,CAST,C,25.0,,6.9,1,310.4,980.0,,,101.0,50.0,,10.1007/s40195-019-00921-3,
Hf0.25 Nb0.5 Ti1 V0.5 Zr0.5,CAST,C,600.0,,6.9,1,310.4,859.0,,,101.0,50.0,,10.1007/s40195-019-00921-3,
Hf0.25 Nb0.5 Ti1 V0.5 Zr0.5,CAST,C,800.0,,6.9,1,310.4,195.0,,,101.0,50.0,,10.1007/s40195-019-00921-3,
Hf0.25 Ti1 V0.5 Zr0.5,CAST,C,25.0,,6.5,1,338.3,1160.0,,,100.0,50.0,,10.1007/s40195-019-00921-3,
Hf0.25 Ti1 V0.5 Zr0.5,CAST,C,600.0,,6.5,1,338.3,405.0,,,100.0,50.0,,10.1007/s40195-019-00921-3,
Hf0.25 Ti1 V0.5 Zr0.5,CAST,C,800.0,,6.5,1,338.3,85.0,,,100.0,50.0,,10.1007/s40195-019-00921-3,
Hf0.26 Nb1 Ta1 Ti0.578 Zr0.416,CAST,C,60.0,,10.4,1,,795.0,,,122.0,,,10.1080/14786435.2015.1028506,
Hf0.26 Nb1 Ta1 Ti0.578 Zr0.416,CAST,C,100.0,,10.4,1,,765.0,,,122.0,,,10.1080/14786435.2015.1028506,
Hf0.26 Nb1 Ta1 Ti0.578 Zr0.416,CAST,C,200.0,,10.4,1,,650.0,,,122.0,,,10.1080/14786435.2015.1028506,
Hf0.26 Nb1 Ta1 Ti0.578 Zr0.416,CAST,C,300.0,,10.4,1,,590.0,,,122.0,,,10.1080/14786435.2015.1028506,
Hf0.26 Nb1 Ta1 Ti0.578 Zr0.416,CAST,C,25.0,,10.4,1,,845.0,,,122.0,,,10.1080/14786435.2015.1028506,
Hf0.333 Nb0.333 Ta0.333 Ti1 Zr0.667,CAST,T,25.0,,8.2,1,301.0,903.0,990.0,,103.0,19.0,,10.1063/1.4966659,
Hf0.5 Mo0.5 Nb1 Ti1 Zr1,CAST,C,25.0,,7.9,1,,1176.0,1538.0,,,,25.0,10.1016/j.intermet.2015.09.011,
Hf0.5 Mo0.5 Nb1 Ti1 Zr1,CAST,C,25.0,7.845,7.872332196,1,,1180.0,,,114.9663113,24.6,19.0,,Prof.Yeh-RHEA
Hf0.5 Nb0.25 Ti2 V1 Zr1,CAST,C,25.0,6.57,6.604855931,1,,1115.0,,,99.82086809,50.0,50.0,,Prof.Yeh-RHEA