FORMULA,Process Method,Measurement Method,Measuremet T (?°C),Structure: Exp Density (g/cm^3),Structure: Calculated Density (g/cm^3),Structure: Microstructure,Mechanics: Hardness (HV),Mechanics: Yield strength (MPa),Mechanics: Ultra tensle strength (MPa),Mechanics: Exp Young modulus (GPa),Mechanics: Calculated Young modulus (GPa),Mechanics: Fracture Elongation (%),Mechanics: Plastic Elongation (%),Others: DOI,Others: Reference
Al0.5Nb1Ta0.8Ti1.5V0.2Zr1,,C,25,7.6,7.557222162,BCC,530,2035,2105,,108.974285,5,,https://doi.org/10.1016/j.dib.2018.11.111,Data in Brief 21 (2018) 2664¡V2678
Al0.5Nb1Ta1Ti1V1,,C,25,8.5,8.460857347,BCC,,1014,,127,127.1790096,,,https://doi.org/10.1016/j.dib.2018.11.111,Data in Brief 21 (2018) 2664¡V2678
Al0.62Co1Cr1Fe1Mn1Ni1,CAST,T,25,,7.2,FCC+BCC,405,833,,,,5,,10.1016/j.actamat.2013.09.037,
Al0.62Co1Cr1Fe1Mn1Ni1,,T,25,7.2,7.224271674,FCC+BCC,405,833,,,197.2888403,5,,https://doi.org/10.1016/j.dib.2018.11.111,Data in Brief 21 (2018) 2664¡V2678
Al0.62Co1Cr1Fe1Mn1Ni1,,C,25,7.225,7.224271674,FCC+BCC,404.5,832.5,,,197.2888403,7,,,Prof.Yeh-3dtransitional
Al0.667C1Co0.667Cr0.667Fe0.667Ni0.667,CAST,C,25,,5.9,BCC+Sec.,,1255,2083,73,,,6,10.1016/j.jallcom.2010.10.047,
Al0.667Co0.667Cr0.667Fe0.667Mo0.333Ni1,CAST,,25,,7.2,FCC+B2+Sec.,586,,,,,,,10.1016/j.intermet.2012.09.008,
Al0.667Co0.667Cr0.667Fe0.667Ni0.667Ti1,CAST,C,25,,6.1,BCC+Sec.,,2220,2720,160,,6.6,5,10.1063/1.2734517,
Al0.667Co0.667Cr0.667Fe1Mo0.333Ni0.667,CAST,,25,,7.2,BCC+Sec.,635,,,,,,,10.1016/j.wear.2009.10.013,
Al0.667Co0.667Cu0.667Fe0.667Ni1,CAST,C,25,,7.2,FCC+BCC+B2,323.8,680,,,,35.9,,10.1016/j.jmst.2018.12.014,
Al0.667Co0.833Cr0.833Fe0.833Ni0.833Ti1,CAST,C,25,,6.3,BCC+B2+Laves,856.9,1272,,,,3.15,,10.1016/j.jallcom.2019.07.100,
Al0.667Co1Cr0.667Fe0.667Mo0.333Ni0.667,CAST,,25,,7.2,BCC+Sec.,741,,,,,,,10.1002/adem.200900171,
Al0.667Co1Cr1Cu1Fe1Mn1Ni1Ti1V1,CAST,C,25,,6.8,BCC+Sec.,,1461,1461,163,,1,,10.1016/j.msea.2006.11.049,
Al0.667Cr1Nb0.667Ti0.667V0.667,ANNEAL,C,600,,5.9,BCC+Laves,,1370,1480,,,,,10.1016/j.jallcom.2015.08.224,
Al0.667Cr1Nb0.667Ti0.667V0.667,ANNEAL,C,800,,5.9,BCC+Laves,,970,1045,,,,,10.1016/j.jallcom.2015.08.224,
Al0.667Cr1Nb0.667Ti0.667V0.667,ANNEAL,C,1000,,5.9,BCC+Laves,,75,105,,,,,10.1016/j.jallcom.2015.08.224,
Al0.667Cr1Nb0.667Ti0.667V0.667,ANNEAL,C,25,,5.9,BCC+Laves,,1700,1700,,,,,10.1016/j.jallcom.2015.08.224,
Al0.667Li0.667Mg0.333Sc0.667Ti1,,,25,,2.7,FCC+HCP,591,,,,,,,10.1080/21663831.2014.985855,
Al0.667Nb0.667Ti0.667V0.667Zr1,ANNEAL,C,600,,5.8,B2+Laves+Sec.,,1195,1195,,,,,10.1016/j.msea.2017.08.019,
Al0.667Nb0.667Ti0.667V0.667Zr1,ANNEAL,C,800,,5.8,B2+Laves+Sec.,,180,395,,,,,10.1016/j.msea.2017.08.019,
Al0.667Nb0.667Ti0.667V0.667Zr1,ANNEAL,C,25,,5.8,B2+Laves+Sec.,,1535,1550,,,,,10.1016/j.msea.2017.08.019,
Al0.68Co1Cr1Fe1Mn1Ni1,CAST,,25,,7.2,FCC+BCC,486,,,,,,,10.1016/j.actamat.2013.09.037,
Al0.68Co1Cr1Fe1Mn1Ni1,,,25,7.2,7.159194494,FCC+BCC,486,,,,195.4586628,,,https://doi.org/10.1016/j.dib.2018.11.111,Data in Brief 21 (2018) 2664¡V2678
Al0.6Co1Cr0.333Fe0.333Mo0.067Ni1,CAST,C,25,,7.1,FCC+BCC,362.6,1250.8,,,,14.7,,10.1007/s00339-019-2506-z,
Al0.6Co1Cr0.333Fe0.333Mo0.1Ni0.967,CAST,C,25,,7.2,FCC+BCC,359.7,1198.3,,,,14.5,,10.1007/s00339-019-2506-z,
Al0.6Co1Cr1Fe1Ni1,CAST,,,,7.2,FCC+BCC+B2,228,,,,,,,10.1016/j.matdes.2019.107698,
Al0.6Cr0.5Cu0.5Fe0.5Ni1,,,25,,6.9,FCC+BCC,,,,,,,,10.1063/1.3587228,
Al0.6Cr1Fe1Mn1Ni1,CAST,C,25,,6.9,BCC+B2,361,1130,,,,53,,10.1016/j.msea.2019.04.104,
Al0.6Cr1Cu1Fe1Ni2,,,25,7.5,7.509549942,FCC,,,,,184.5225314,,,https://doi.org/10.1016/j.dib.2018.11.111,Data in Brief 21 (2018) 2664¡V2678
Al0.6Mo1Ta1Ti1V1,CAST,C,25,,8.7,BCC,,962,1033,,173,,,10.4028/www.scientific.net/MSF.898.638,
Al0.714Cr0.714Cu0.714Fe0.714Ni1,ANNEAL,,25,,6.9,FCC+BCC,367,,,,,,,10.1016/j.msea.2011.11.063,
Al0.71Co1Cr1Fe1Ni1,ANNEAL,C,,,7.053765496,FCC+B2+Sec.,,,,,193.8347751,,,,Paper_Collection_5_element
Al0.71Co1Cr1Fe1Ni1,ANNEAL,C,,,7.053765496,FCC+B2,,,,,193.8347751,,,,Paper_Collection_5_element
Al0.75Co1Fe1Ni1,CAST,C,25,,7,FCC+BCC,385,794,,,,,12,10.1016/j.jmmm.2014.07.023,
Al0.75Co1Cr1Cu0.25Fe1Ni1Ti0.5,CAST,C,25,,6.8,FCC+BCC,,1900,2697,164,,,,10.1016/j.jallcom.2008.11.059,
Al0.75Co1Cr1Fe1Mn1Ni1,CAST,,25,,7.1,FCC+BCC,530,,,,,,,10.1016/j.actamat.2013.09.037,
Al0.75Co1Cr1Fe1Ni1,ANNEAL,,25,,7,FCC+BCC,388,,,,,,,10.1016/j.jallcom.2009.08.090,
Al0.75Co1Cr1Fe1Ni1,ANNEAL,,25,,7,FCC+BCC,280,,,,,,,10.1016/j.jallcom.2009.08.090,
Al0.75Co1Cr1Cu0.25Fe1Ni1Ti0.5,,C,25,6.8,6.769577356,FCC+BCC,,1900,2697,189,180.1525695,12,,https://doi.org/10.1016/j.dib.2018.11.111,Data in Brief 21 (2018) 2664¡V2678
Al0.75Co1Cr1Cu0.25Fe1Ni1Ti0.5,,C,25,6.775,6.769577356,FCC+BCC,,1900,,164.5,180.1525695,12,,,Prof.Yeh-3dtransitional
Al0.75Co1Cr1Fe1Mn1Ni1,,,25,7.1,7.085597312,FCC+BCC,530,,,,193.3888758,,,https://doi.org/10.1016/j.dib.2018.11.111,Data in Brief 21 (2018) 2664¡V2678
Al0.75Co1Cr1Fe1Ni1,,,25,7,7.004100597,FCC+BCC,388,,,,192.422748,,,https://doi.org/10.1016/j.dib.2018.11.111,Data in Brief 21 (2018) 2664¡V2678
Al0.75Co1Cr1Fe1Ni1,,,25,7,7.004100597,FCC+BCC,280,,,,192.422748,,,https://doi.org/10.1016/j.dib.2018.11.111,Data in Brief 21 (2018) 2664¡V2678
Al0.75Co1Fe1Ni1,,C,25,7,6.955394935,FCC+BCC,385,794,,,169.9468582,,,https://doi.org/10.1016/j.dib.2018.11.111,Data in Brief 21 (2018) 2664¡V2678
Al0.75Co1Fe1Ni1,,C,25,6.955,6.955394935,FCC+BCC,384.5,793.5,,,169.9468582,,,,Prof.Yeh-3dtransitional
Al0.75Hf1Nb1Ta1Ti1Zr1,CAST,C,25,,9.1,BCC,427,1415,2050,102,103,30,,10.1016/j.jallcom.2014.11.064,
Al0.75Hf1Nb1Ta1Ti1Zr1,,C,25,9.1,9.091430053,BCC,427,1415,,105,102.7968193,30,,https://doi.org/10.1016/j.dib.2018.11.111,Data in Brief 21 (2018) 2664¡V2678
Al0.75Hf1Nb1Ta1Ti1Zr1,CAST,C,25,9.3,9.091430053,BCC,427,1415,,102,102.7968193,30,30,,Prof.Yeh-RHEA
Al0.75Mo1Nb1Ti1V1,CAST,C,25,,6.6,BCC,517,1260,1300,,151,8,,10.3390/e16020870,
Al0.75Mo1Nb1Ti1V1,,C,25,6.6,6.597193785,BCC,517,1260,,,151.0042854,8,,https://doi.org/10.1016/j.dib.2018.11.111,Data in Brief 21 (2018) 2664¡V2678
Al0.75Mo1Nb1Ti1V1,CAST,C,25,6.6,6.597193785,BCC,517,1260,,154,151.0042854,8,7,,Prof.Yeh-RHEA
Al0.774Fe1Mn0.903Ni0.484,CAST,,,,6.3,,310,,,,,,,10.1155/2019/2157592,
Al0.774Fe1Mn0.903Ni0.484,ANNEAL,,,,6.3,,340,,,,,,,10.1155/2019/2157592,
Al0.774Fe1Mn0.903Ni0.484,ANNEAL,,,,6.3,,330,,,,,,,10.1155/2019/2157592,
Al0.774Fe1Mn0.903Ni0.484Ti0.026,CAST,,,,6.3,,330,,,,,,,10.1155/2019/2157592,
Al0.774Fe1Mn0.903Ni0.484Ti0.026,ANNEAL,,,,6.3,,410,,,,,,,10.1155/2019/2157592,
Al0.774Fe1Mn0.903Ni0.484Ti0.026,ANNEAL,,,,6.3,,330,,,,,,,10.1155/2019/2157592,
Al0.774Fe1Mn0.903Ni0.484Ti0.097,CAST,,,,6.2,,500,,,,,,,10.1155/2019/2157592,
Al0.774Fe1Mn0.903Ni0.484Ti0.097,ANNEAL,,,,6.2,,495,,,,,,,10.1155/2019/2157592,
Al0.774Fe1Mn0.903Ni0.484Ti0.097,ANNEAL,,,,6.2,,490,,,,,,,10.1155/2019/2157592,
Al0.7Co0.3Cr1Fe1Ni1,POWDER,C,25,,6.8,FCC+BCC+B2,624,2033,2635,,,8,,10.1016/j.matdes.2013.04.061,
Al0.7Co0.3Cr1Fe1Ni1,,C,25,6.8,6.79019543,FCC+BCC+B2,624,2033,2635,,191.8815486,8,,https://doi.org/10.1016/j.dib.2018.11.111,Data in Brief 21 (2018) 2664¡V2678
Al0.7Co0.3Cr1Fe1Ni1,,C,25,6.79,6.79019543,Other,624,2030,,,191.8815486,8.12,,,Prof.Yeh-3dtransitional
Al0.7Co1Cr1Fe1Mn1Ni1,CAST,C,25,,7.1,FCC+BCC,622,2230,,,,,1.69,10.1016/j.jallcom.2018.10.168,
Al0.7Cr1Fe1Mn1Ni1,CAST,C,25,,6.8,BCC+B2,375,1170,,,,55,,10.1016/j.msea.2019.04.104,
Al0.81Co1Cr1Fe1Mn1Ni1,CAST,,25,,7,FCC+BCC,539,,,,,,,10.1016/j.actamat.2013.09.037,
Al0.81Co1Cr1Fe1Mn1Ni1,,,25,7,7.024419853,FCC+BCC,539,,,,191.6683709,,,https://doi.org/10.1016/j.dib.2018.11.111,Data in Brief 21 (2018) 2664¡V2678
Al0.833Cr0.833Cu0.833Fe0.833Ni1,ANNEAL,,25,,6.8,FCC+BCC,407,,,,,,,10.1016/j.msea.2011.11.063,
Al0.853Co0.647Cr1Fe0.147Ni0.294,,,,,6,,699,,,,,,,10.1016/j.actamat.2019.03.010,
Al0.875Co1Cr1Fe1Ni1,ANNEAL,,25,,6.9,BCC,538,,,,188,,,10.1016/j.jallcom.2009.08.090,
Al0.875Co1Cr1Fe1Ni1,ANNEAL,,25,,6.9,FCC+BCC,361,,,,,,,10.1016/j.jallcom.2009.08.090,
Al0.875Co1Cr1Fe1Ni1,,,25,,6.9,FCC+BCC,,,,,,,,10.1016/C2013-0-14235-3,
Al0.875Co1Cr1Fe1Ni1,,,25,6.9,6.855946636,FCC+BCC,,,,,188.2105698,,,https://doi.org/10.1016/j.dib.2018.11.111,Data in Brief 21 (2018) 2664¡V2678
Al0.875Co1Cr1Fe1Ni1,,,25,6.9,6.855946636,BCC,538,,,,188.2105698,,,https://doi.org/10.1016/j.dib.2018.11.111,Data in Brief 21 (2018) 2664¡V2678
Al0.875Co1Cr1Fe1Ni1,,,25,6.9,6.855946636,FCC+BCC,361,,,,188.2105698,,,https://doi.org/10.1016/j.dib.2018.11.111,Data in Brief 21 (2018) 2664¡V2678
Al0.885Cr1Fe1Ni1,CAST,C,25,,6.4,BCC+B2,,770,,,,37.1,,10.1016/j.msea.2016.11.019,
Al0.88Co1Cr1Fe1Mn1Ni1,CAST,,25,,7,FCC+BCC,533,,,,,,,10.1016/j.actamat.2013.09.037,
Al0.88Co1Cr1Fe1Mn1Ni1,,,25,7,6.955167939,FCC+BCC,533,,,,189.7207866,,,https://doi.org/10.1016/j.dib.2018.11.111,Data in Brief 21 (2018) 2664¡V2678
Al0.8Co1Cr1Cu1Fe1,,,25,,7,FCC+BCC,271,,,,,,,10.3166/acsm.31.633-648,
Al0.8Co1Cr1Cu1Fe1Ni1,CAST,,25,,7.3,FCC+BCC,270,,,,,,,10.1002/adem.200900171,
Al0.8Co1Cr1Fe1Ni1Ti0.2,,C,25,,6.8,,,968,,,,30.1,,10.1016/j.jallcom.2018.01.247,
Al0.8Co1Cr1Cu1Fe1,,,25,7,6.977992407,FCC+BCC,271,,,,177.0495845,,,https://doi.org/10.1016/j.dib.2018.11.111,Data in Brief 21 (2018) 2664¡V2678
Al0.8Co1Cr1Cu1Fe1Ni1,,,25,7.3,7.275683436,FCC+BCC,270,,,,180.5924104,,,https://doi.org/10.1016/j.dib.2018.11.111,Data in Brief 21 (2018) 2664¡V2678
Al0.8Co1Cr1Cu1Fe1Ni1,,,25,7.3,7.275683436,FCC,270,,,,180.5924104,,,https://doi.org/10.1016/j.dib.2018.11.111,Data in Brief 21 (2018) 2664¡V2678
Al0.8Cr1Fe1Mn1Ni1,CAST,C,25,,6.7,BCC+B2,386,1200,,,,55,,10.1016/j.msea.2019.04.104,
Al0.8Cr1Cu1Fe1Ni2,,,25,7.3,7.283715815,FCC,,,,,179.1471486,,,https://doi.org/10.1016/j.dib.2018.11.111,Data in Brief 21 (2018) 2664¡V2678
Al0.947Co0.158Mo1Ni0.289W0.237,CAST,,25,,8,,725,,,,,,,10.1038/s41467-019-10533-1,
Al0.95Co1Cr1Fe1Mn1Ni1,CAST,,25,,6.9,FCC+BCC,535,,,,,,,10.1016/j.actamat.2013.09.037,
Al0.95Co1Cr1Fe1Mn1Ni1,,,25,6.9,6.888098169,FCC+BCC,535,,,,187.8345712,,,https://doi.org/10.1016/j.dib.2018.11.111,Data in Brief 21 (2018) 2664¡V2678
Al0.9Co1Cr1Fe1Ni1,CAST,,,,6.8,FCC+BCC+B2,511,,,,,,,10.1016/j.matdes.2019.107698,
Al0.9Co1Cr1Fe1Ni1Ti0.5,CAST,,,,6.5,BCC+B2+Sec.,623,,,,,,,10.1016/j.matdes.2019.107698,
Al1.0Co1Cr1Cu1Fe1Ni1,,C,25,7.075,7.07082644,FCC+BCC,406,950,,,175.6430969,,,,Prof.Yeh-3dtransitional
Al1.0Co1Cr1Fe1Ni1Ti0.5,,C,25,6.445,6.442487963,FCC+BCC,178,2040,,72.5,175.8114219,24.2,,,Prof.Yeh-3dtransitional
Al1.0Co1Fe1Ni1,,C,25,6.605,6.604716099,BCC,455.5,963.5,,,161.7140033,,,,Prof.Yeh-3dtransitional
Al1.125Cu1Fe0.75Ni1Ti1.125,,C,25,5.9,5.879319466,FCC,516,980,1326,140,131.1704646,7,,https://doi.org/10.1016/j.dib.2018.11.111,Data in Brief 21 (2018) 2664¡V2678
Al1.125Cu1Fe0.75Ni1Ti1.125,,C,25,5.885,5.879319466,FCC,516,980,,145,131.1704646,6.6,,,Prof.Yeh-3dtransitional
Al1.25Co1Cr1Fe1Mn1Ni1,,,25,6.6,6.623079554,BCC,539,,,,180.3814042,,,https://doi.org/10.1016/j.dib.2018.11.111,Data in Brief 21 (2018) 2664¡V2678
Al1.25Co1Cr1Fe1Ni1,,,25,6.5,6.466931593,BCC,487,,,,177.1504491,,,https://doi.org/10.1016/j.dib.2018.11.111,Data in Brief 21 (2018) 2664¡V2678
Al1.25Co1Cr1Fe1Ni1,,,25,6.5,6.466931593,BCC,499,,,,177.1504491,,,https://doi.org/10.1016/j.dib.2018.11.111,Data in Brief 21 (2018) 2664¡V2678
Al1.2Cr1Cu1Fe1Ni2,,,25,6.9,6.890189794,FCC+BCC,,,,,169.7803047,,,https://doi.org/10.1016/j.dib.2018.11.111,Data in Brief 21 (2018) 2664¡V2678
Al1.3Co1Cr1Cu1Fe1,,,25,6.5,6.457330783,FCC+BCC,476,,,,164.0265207,,,https://doi.org/10.1016/j.dib.2018.11.111,Data in Brief 21 (2018) 2664¡V2678
Al1.3Co1Cr1Cu1Fe1Ni1,,,25,6.8,6.795757919,FCC+BCC,470,,,,168.9974837,,,https://doi.org/10.1016/j.dib.2018.11.111,Data in Brief 21 (2018) 2664¡V2678
Al1.5Co1Cr1Cu1Fe1,,,25,6.3,6.282891019,FCC+BCC,510,,,,159.6633411,,,https://doi.org/10.1016/j.dib.2018.11.111,Data in Brief 21 (2018) 2664¡V2678
Al1.5Co1Cr1Cu1Fe1Ni1,,,25,6.6,6.630831212,FCC+BCC,506,,,174,165.0128799,,,https://doi.org/10.1016/j.dib.2018.11.111,Data in Brief 21 (2018) 2664¡V2678
Al1.5Co1Cr1Fe1Mo0.5Ni1,,,25,6.6,6.64078703,BCC+Sec.,655,,,,186.5496086,,,https://doi.org/10.1016/j.dib.2018.11.111,Data in Brief 21 (2018) 2664¡V2678
Al1.5Co1Cr1Fe1Ni1,,,25,6.2,6.245655305,BCC,484,,,,170.8593236,,,https://doi.org/10.1016/j.dib.2018.11.111,Data in Brief 21 (2018) 2664¡V2678
Al1.5Co1Cr1Fe1Ni1,,,25,6.2,6.245655305,BCC,517,,,,170.8593236,,,https://doi.org/10.1016/j.dib.2018.11.111,Data in Brief 21 (2018) 2664¡V2678
Al1.5Co1Cr1Fe1Ni1,,,25,6.2,6.245655305,BCC,402,,,,170.8593236,,,https://doi.org/10.1016/j.dib.2018.11.111,Data in Brief 21 (2018) 2664¡V2678
Al1.5Co1Cr1Fe1Ni1Ti1,,C,25,5.9,5.896411178,BCC,,,2110,172,159.8915821,10,,https://doi.org/10.1016/j.dib.2018.11.111,Data in Brief 21 (2018) 2664¡V2678
Al1.5Cr1Cu1Fe1Ni2,,C,,,6.636690343,FCC+B2,,,,,163.7464221,,,,Paper_Collection_5_element
Al1.71Co1Cr1Fe1Ni1,ANNEAL,C,,,6.078919561,BCC+B2,,,,,166.1188451,,,,Paper_Collection_5_element
Al1.8Co1Cr1Cu1Fe1,,,25,6,6.049610943,FCC+BCC,557,,,,153.8284165,,,https://doi.org/10.1016/j.dib.2018.11.111,Data in Brief 21 (2018) 2664¡V2678
Al1.8Co1Cr1Cu1Fe1Ni1,,,25,6.4,6.406917147,FCC+BCC,650,,,,159.6031505,,,https://doi.org/10.1016/j.dib.2018.11.111,Data in Brief 21 (2018) 2664¡V2678
Al1C0.1Co1Cr1Fe1Ni1,CAST,C,25,,6.7,BCC+Sec.,,957,2550,213,,,11,10.1016/j.jallcom.2010.10.047,
Al1C0.2Co1Cr1Fe1Ni1,CAST,C,25,,6.6,BCC+Sec.,,906,2386,151,,,9,10.1016/j.jallcom.2010.10.047,
Al1C0.3Co1Cr1Fe1Ni1,CAST,C,25,,6.5,BCC+Sec.,,867,2178,137,,,8,10.1016/j.jallcom.2010.10.047,
Al1C0.4Co1Cr1Fe1Ni1,CAST,C,25,,6.5,BCC+Sec.,,1056,2375,156,,,7,10.1016/j.jallcom.2010.10.047,
Al1C0.5Co1Cr1Fe1Ni1,CAST,C,25,,6.4,BCC+Sec.,,1060,2250,181,,,6,10.1016/j.jallcom.2010.10.047,
Al1C1Co1Cr1Fe1Ni1,POWDER,,,,6.2,FCC+BCC,,,,,,,7,10.1080/00325899.2019.1576389,
Al1C1Co1Cr1Fe1Ni1,CAST,C,25,,6.2,BCC+Sec.,,1251,2166,75,,,,10.1016/j.jallcom.2010.10.047,
Al1Co0.149Cr0.34Cu0.191Fe0.34Ni0.106,,,,,5.1,,749,,,,,,,10.1016/j.actamat.2019.03.010,
Al1Co0.234Cr0.468Cu0.106Fe0.213Ni0.106,,,,,5,,797,,,,,,,10.1016/j.actamat.2019.03.010,
Al1Co0.238Cr0.714Cu0.119Fe0.167Ni0.143,,,,,5.2,,783,,,,,,,10.1016/j.actamat.2019.03.010,
Al1Co0.255Cr0.255Cu0.106Fe0.277Ni0.234,,,,,5.1,,811,,,,,,,10.1016/j.actamat.2019.03.010,
Al1Co0.255Cr0.426Cu0.106Fe0.234Ni0.106,,,,,5,,843,,,,,,,10.1016/j.actamat.2019.03.010,
Al1Co0.256Cr0.795Cu0.128Fe0.205Ni0.179,,,,,5.4,,802,,,,,,,10.1016/j.actamat.2019.03.010,
Al1Co0.25Cr1Fe1Ni1,,C,25,,6.4,,,1363,,,,19,,10.1016/j.jallcom.2018.07.346,
Al1Co0.277Cr0.277Cu0.106Fe0.255Ni0.213,,,,,5.1,,799,,,,,,,10.1016/j.actamat.2019.03.010,
Al1Co0.277Cr0.426Cu0.106Fe0.213Ni0.106,,,,,5,,805,,,,,,,10.1016/j.actamat.2019.03.010,
Al1Co0.278Cr0.861Cu0.167Fe0.25Ni0.222,,,,,5.6,,790,,,,,,,10.1016/j.actamat.2019.03.010,
Al1Co0.289Cr0.158Cu0.237Fe0.816Ni0.132,,,,,5.6,,604,,,,,,,10.1016/j.actamat.2019.03.010,
Al1Co0.298Cr0.319Cu0.106Fe0.277Ni0.128,,,,,5.1,,728,,,,,,,10.1016/j.actamat.2019.03.010,
Al1Co0.298Cr0.404Cu0.106Fe0.213Ni0.106,,,,,5.1,,855,,,,,,,10.1016/j.actamat.2019.03.010,
Al1Co0.298Cr0.426Cu0.106Fe0.191Ni0.106,,,,,5.1,,859,,,,,,,10.1016/j.actamat.2019.03.010,
Al1Co0.304Cr0.5Cu0.109Fe0.152Ni0.109,,,,,5.1,,811,,,,,,,10.1016/j.actamat.2019.03.010,
Al1Co0.318Cr0.5Cu0.114Fe0.205Ni0.136,,,,,5.2,,790,,,,,,,10.1016/j.actamat.2019.03.010,
Al1Co0.326Cr0.488Cu0.116Fe0.279Ni0.116,,,,,5.3,,828,,,,,,,10.1016/j.actamat.2019.03.010,
Al1Co0.333Cr0.333Cu0.333Fe0.333,,,25,,5.4,BCC,644,,,,136,,,10.3166/acsm.31.633-648,
Al1Co0.333Cr0.333Fe0.333Ni0.333,CAST,,25,,5.3,BCC,506,,,,145,,,10.1016/j.jallcom.2008.07.124,
Al1Co0.349Cr0.395Cu0.116Fe0.326Ni0.14,,,,,5.3,,794,,,,,,,10.1016/j.actamat.2019.03.010,
Al1Co0.357Cr0.357Cu0.357Fe0.357,,,25,,5.5,BCC,657,,,,139,,,10.3166/acsm.31.633-648,
Al1Co0.362Cr0.34Cu0.106Fe0.213Ni0.106,,,,,5.1,,841,,,,,,,10.1016/j.actamat.2019.03.010,
Al1Co0.383Cr0.319Cu0.106Fe0.213Ni0.106,,,,,5.1,,849,,,,,,,10.1016/j.actamat.2019.03.010,
Al1Co0.395Cr0.349Fe0.326Ni0.256,,,,,5.3,,806,,,,,,,10.1016/j.actamat.2019.03.010,
Al1Co0.404Cr0.404Cu0.106Fe0.106Ni0.106,,,,,5.1,,878,,,,,,,10.1016/j.actamat.2019.03.010,
Al1Co0.419Cr0.465Fe0.279Ni0.163,,,,,5.3,,864,,,,,,,10.1016/j.actamat.2019.03.010,
Al1Co0.419Cr0.558Fe0.233Ni0.116,,,,,5.2,,856,,,,,,,10.1016/j.actamat.2019.03.010,
Al1Co0.426Cr0.383Cu0.106Fe0.106Ni0.106,,,,,5.1,BCC+B2,883,,,,,,,10.1016/j.actamat.2019.03.010,
Al1Co0.435Cr0.435Cu0.435Fe0.435,,,25,,5.7,FCC+BCC,603,,,,,,,10.3166/acsm.31.633-648,
Al1Co0.442Cr0.442Fe0.256Ni0.186,,,,,5.3,,855,,,,,,,10.1016/j.actamat.2019.03.010,
Al1Co0.442Cr0.558Fe0.186Ni0.14,,,,,5.2,,855,,,,,,,10.1016/j.actamat.2019.03.010,
Al1Co0.457Cr0.391Cu0.109Fe0.109Ni0.109,,,,,5.2,,840,,,,,,,10.1016/j.actamat.2019.03.010,
Al1Co0.465Cr0.442Fe0.209Ni0.209,,,,,5.3,,816,,,,,,,10.1016/j.actamat.2019.03.010,
Al1Co0.465Cr0.488Fe0.209Ni0.163,,,,,5.3,,828,,,,,,,10.1016/j.actamat.2019.03.010,
Al1Co0.465Cr0.512Fe0.186Ni0.163,,,,,5.3,,857,,,,,,,10.1016/j.actamat.2019.03.010,
Al1Co0.4Cr0.4Cu0.4Fe0.4,,,25,,5.6,FCC+BCC,624,,,,,,,10.3166/acsm.31.633-648,
Al1Co0.4Cr0.4Fe0.4Ni0.4,CAST,,25,,5.6,BCC,487,,,,152,,,10.1016/j.jallcom.2008.07.124,
Al1Co0.512Cr0.512Fe0.186Ni0.116,,,,,5.3,,882,,,,,,,10.1016/j.actamat.2019.03.010,
Al1Co0.512Cr0.535Fe0.163Ni0.116,,,,,5.3,BCC+B2,883,,,,,,,10.1016/j.actamat.2019.03.010,
Al1Co0.512Cr0.581Fe0.116Ni0.116,,,,,5.2,,848,,,,,,,10.1016/j.actamat.2019.03.010,
Al1Co0.535Cr0.488Fe0.186Ni0.116,,,,,5.3,,863,,,,,,,10.1016/j.actamat.2019.03.010,
Al1Co0.556Cr0.556Cu0.556Fe0.556,,,25,,6.1,FCC+BCC,557,,,,,,,10.3166/acsm.31.633-648,
Al1Co0.556Cr0.556Fe0.556Ni0.556Ti0.111,CAST,C,25,,5.9,BCC+B2,605.5,1324,,,,10.02,,10.1016/j.jallcom.2019.07.100,
Al1Co0.558Cr0.512Fe0.116Ni0.14,,,,,5.3,,875,,,,,,,10.1016/j.actamat.2019.03.010,
Al1Co0.558Cr0.535Fe0.116Ni0.116,,,,,5.3,,868,,,,,,,10.1016/j.actamat.2019.03.010,
Al1Co0.581Cr0.512Fe0.116Ni0.116,,,,,5.3,,865,,,,,,,10.1016/j.actamat.2019.03.010,
Al1Co0.5Cr0.5Cu0.5Fe0.5,,,25,,5.9,FCC+BCC,567,,,,,,,10.3166/acsm.31.633-648,
Al1Co0.5Cr0.5Cu0.5Fe0.5Ni0.5,CAST,,,,6.3,FCC+BCC,560,,,,156,,,10.1016/j.vacuum.2018.12.009,
Al1Co0.5Cr0.5Cu0.5Fe0.5Ni0.5,CAST,C,1000,,6.3,BCC,,116,,,156,,,10.1007/s11661-005-0218-9,
Al1Co0.5Cr0.5Cu0.5Fe0.5Ni0.5,CAST,C,1100,,6.3,BCC,,79,,,156,,,10.1007/s11661-005-0218-9,
Al1Co0.5Cr0.5Cu0.5Fe0.5Ni0.5,CAST,C,25,,6.3,BCC,,1620,,,156,,,10.1007/s11661-005-0218-9,
Al1Co0.5Cr0.5Cu0.5Fe0.5Ni0.5,CAST,C,600,,6.3,BCC,,805,,,156,,,10.1007/s11661-005-0218-9,
Al1Co0.5Cr0.5Cu0.5Fe0.5Ni0.5,CAST,C,500,,6.3,BCC,,1120,,,156,,,10.1007/s11661-005-0218-9,
Al1Co0.5Cr0.5Cu0.5Fe0.5Ni0.5,CAST,C,700,,6.3,BCC,,567,,,156,,,10.1007/s11661-005-0218-9,
Al1Co0.5Cr0.5Cu0.5Fe0.5Ni0.5,CAST,C,900,,6.3,BCC,,214,,,156,,,10.1007/s11661-005-0218-9,
Al1Co0.5Cr0.5Cu0.5Fe0.5Ni0.5,CAST,C,800,,6.3,BCC,,302,,,,,,10.1007/s11661-005-0218-9,
Al1Co0.5Cr0.5Fe0.5Mo0.25Ni0.5,CAST,,25,,6.3,BCC+B2,605,,,,,,,10.1007/s11837-013-0753-6,
Al1Co0.5Cr0.5Fe0.5Ni0.5,CAST,C,25,,5.9,BCC+B2,581.7,1241,,,160,,,10.1016/j.jallcom.2019.07.100,
Al1Co0.5Cr0.5Fe0.5Ni0.5,ANNEAL,,25,,5.9,BCC,509,,,,160,,,10.1016/j.jallcom.2009.08.090,
Al1Co0.5Cr0.5Fe0.5Ni0.5,ANNEAL,,25,,5.9,BCC,512,,,,160,,,10.1016/j.jallcom.2009.08.090,
Al1Co0.5Cr0.5Fe0.5Ni0.5,CAST,,25,,5.9,BCC,432,,,,,9.98,,10.1016/j.jallcom.2008.07.124,
Al1Co0.5Cr0.5Fe0.5Ni0.5,,,,,5.9,BCC,733,,,,160,,,10.1016/j.intermet.2012.03.005,
Al1Co0.5Cr0.5Fe0.5Ni0.5Ti0.5,CAST,C,25,,5.6,BCC+BCC,643,,1030,94,,,5,10.1016/j.msea.2008.12.053,
Al1Co0.5Cr1Fe0.147Ni0.294,,,,,5.7,,699,,,,,,,10.1016/j.actamat.2019.03.010,
Al1Co0.5Cr1Fe1Mo0.5Ni1,CAST,,25,,7,BCC+Sec.,801,,,,,,,10.1002/adem.200900171,
Al1Co0.5Cr1Fe1Ni1,,C,25,,6.5,,,1349,,,,20,,10.1016/j.jallcom.2018.07.346,
Al1Co0.667Cr0.667Cu0.667Fe0.667,,,25,,6.3,FCC+BCC,510,,,,,,,10.3166/acsm.31.633-648,
Al1Co0.667Cr0.667Cu0.667Fe0.667Ni0.667,CAST,,,,6.6,FCC+BCC,498,,,,,,,10.1016/j.vacuum.2018.12.009,
Al1Co0.667Cr0.667Fe0.667Mo0.333Ni0.667,CAST,,25,,6.6,B2+Sec.,655,,,,,,,10.1007/s11837-013-0753-6,
Al1Co0.667Cr0.667Fe0.667Ni0.667,ANNEAL,,25,,6.2,BCC,484,,,,171,,,10.1016/j.jallcom.2009.08.090,
Al1Co0.667Cr0.667Fe0.667Ni0.667,ANNEAL,,25,,6.2,BCC,517,,,,171,,,10.1016/j.jallcom.2009.08.090,
Al1Co0.667Cr0.667Fe0.667Ni0.667,CAST,,25,,6.2,BCC,402,,,,171,,,10.1016/j.jallcom.2008.07.124,
Al1Co0.667Cr0.667Fe0.667Ni0.667Ti0.333,CAST,C,25,,6.1,BCC+B2,641.7,1566,,,,11.85,,10.1016/j.jallcom.2019.07.100,