FORMULA,PROPERTY: Processing method,PROPERTY: Type of test,Measuremet T (?°C),PROPERTY: Exp. Density (g/cm$^3$),PROPERTY: Calculated Density (g/cm$^3$),PROPERTY: Microstructure,PROPERTY: HV,PROPERTY: YS (MPa),PROPERTY: UTS (MPa),PROPERTY: Exp. Young modulus (GPa),PROPERTY: Calculated Young modulus (GPa),PROPERTY: Elongation (%),PROPERTY: Elongation plastic (%),Others: DOI,Others: Reference
Hf1 Nb1 Ta1 Ti1 Zr1,,,600.0,9.9,9.893530612,1,,675.0,,,106.9115089,50.0,,https://doi.org/10.1016/j.dib.2018.11.111,Data in Brief 21 (2018) 2664¡V2678
Hf1 Nb1 Ta1 Ti1 Zr1,,,800.0,9.9,9.893530612,1,,535.0,,,106.9115089,50.0,,https://doi.org/10.1016/j.dib.2018.11.111,Data in Brief 21 (2018) 2664¡V2678
Hf1 Nb1 Ta1 Ti1 Zr1,,,1000.0,9.9,9.893530612,1,,295.0,,,106.9115089,50.0,,https://doi.org/10.1016/j.dib.2018.11.111,Data in Brief 21 (2018) 2664¡V2678
Hf1 Nb1 Ta1 Ti1 Zr1,,,1200.0,9.9,9.893530612,1,,92.0,,,106.9115089,50.0,,https://doi.org/10.1016/j.dib.2018.11.111,Data in Brief 21 (2018) 2664¡V2678
Hf1 Nb1 Ta1 Ti1 Zr1,,,1400.0,9.9,9.893530612,1,,790.0,,,106.9115089,50.0,,https://doi.org/10.1016/j.dib.2018.11.111,Data in Brief 21 (2018) 2664¡V2678
Hf1 Nb1 Ta1 Ti1 Zr1,,C,25.0,9.9,9.893530612,1,335.0,1015.0,,111.0,106.9115089,50.0,,https://doi.org/10.1016/j.dib.2018.11.111,Data in Brief 21 (2018) 2664¡V2678
Hf1 Nb1 Ta1 Ti1 Zr1,,C,25.0,9.9,9.893530612,1,295.0,1073.0,,111.0,106.9115089,50.0,,https://doi.org/10.1016/j.dib.2018.11.111,Data in Brief 21 (2018) 2664¡V2678
Hf1 Nb1 Ta1 Ti1 Zr1,,C,25.0,9.9,9.893530612,1,390.0,929.0,,,106.9115089,50.0,,https://doi.org/10.1016/j.dib.2018.11.111,Data in Brief 21 (2018) 2664¡V2678
Hf1 Nb1 Ta1 Zr1,,C,25.0,11.1,11.06162515,1,365.0,1315.0,,,104.9436304,,,https://doi.org/10.1016/j.dib.2018.11.111,Data in Brief 21 (2018) 2664¡V2678
Hf1 Nb1 Ta1 Zr1,CAST,C,25.0,11.3,11.06162515,1,,1320.0,,,104.9436304,34.0,32.0,,Prof.Yeh-RHEA
Hf1 Nb1 Ti1 V1 Zr1,CAST,C,25.0,8.1,8.0598931,1,388.0,1170.0,1463.0,128.0,94.98742358,30.0,30.0,,Prof.Yeh-RHEA
Hf1 Nb1 Ti1 Zr1,,T,25.0,8.4,8.389278152,1,,879.0,969.0,,89.37400368,15.0,,https://doi.org/10.1016/j.dib.2018.11.111,Data in Brief 21 (2018) 2664¡V2678
Hf1 Nb1 Ti1 Zr1,ANNEAL,T,25.0,8.395,8.389278152,1,,879.0,,,89.37400368,14.9,,,Prof.Yeh-RHEA
Mo0.135 Nb0.205 Ti0.24 V0.20 Zr0.22,CAST,C,25.0,6.845,6.835399701,1,,1475.5,,,126.8650501,29.75,22.0,,Prof.Yeh-RHEA
Mo0.15 Nb0.095 Ti0.325 V0.27 Zr0.16,CAST,C,25.0,6.46,6.464510938,1,,1526.0,,,135.9988299,26.9,18.9,,Prof.Yeh-RHEA
Mo0.1 Nb1 Ti1 V0.3 Zr1,ANNEAL,C,25.0,,6.6,1,,932.0,,,102.0,,45.0,10.1016/j.matdes.2015.06.072,
Mo0.333 Nb0.333 Ti0.333 V1 Zr0.333,CAST,C,25.0,,6.9,1,,1418.0,2508.0,,138.0,24.0,,10.1007/s11837-012-0366-5,
Mo0.3 Nb1 Ti1 V0.3 Zr1,ANNEAL,C,25.0,,6.8,1,,1312.0,,,112.0,,50.0,10.1016/j.matdes.2015.06.072,
Mo0.3 Nb1 Ti1 V1 Zr1,ANNEAL,C,25.0,,6.7,1,,1289.0,,,114.0,,42.0,10.1016/j.matdes.2015.06.072,
Mo0.3 Nb1 Ti1 V1 Zr1,,C,25.0,6.7,6.685845916,1,,1289.0,,,114.0081503,42.0,,https://doi.org/10.1016/j.dib.2018.11.111,Data in Brief 21 (2018) 2664¡V2678
Mo0.3 Nb1 Ti1 V1 Zr1,CAST,C,25.0,6.7,6.685845916,1,,1289.0,,,114.0081503,42.0,42.0,,Prof.Yeh-RHEA
Mo0.5 Nb0.5 Ti0.5 V1 Zr0.5,CAST,C,25.0,,7.0,1,,1538.0,3176.0,,139.0,23.0,,10.1007/s11837-012-0366-5,
Mo0.5 Nb1 Ti1 V0.3 Zr1,ANNEAL,C,25.0,,6.9,1,,1301.0,,,122.0,,43.0,10.1016/j.matdes.2015.06.072,
Mo0.5 Nb1 Ti1 V1 Zr1,ANNEAL,C,25.0,,6.8,1,,1473.0,,,122.0,,32.0,10.1016/j.matdes.2015.06.072,
Mo0.5 Nb1 Ti1 V1 Zr1,,C,25.0,6.8,6.822863505,1,,1473.0,,,122.3241237,32.0,,https://doi.org/10.1016/j.dib.2018.11.111,Data in Brief 21 (2018) 2664¡V2678
Mo0.5 Nb1 Ti1 V1 Zr1,CAST,C,25.0,6.8,6.822863505,1,,1473.0,,,122.3241237,32.0,32.0,,Prof.Yeh-RHEA
Mo0.667 Nb0.667 Ti0.667 V1 Zr0.667,CAST,C,25.0,,7.1,1,,1735.0,3300.0,,140.0,20.0,,10.1007/s11837-012-0366-5,
Mo0.7 Nb1 Ti1 V0.3 Zr1,ANNEAL,C,25.0,,7.1,1,,1436.0,,,130.0,,27.0,10.1016/j.matdes.2015.06.072,
Mo0.7 Nb1 Ti1 V1 Zr1,ANNEAL,C,25.0,,6.9,1,,1706.0,,,130.0,,32.0,10.1016/j.matdes.2015.06.072,
Mo0.7 Nb1 Ti1 V1 Zr1,,C,25.0,7.0,6.949676036,1,,1706.0,,,130.0207242,32.0,,https://doi.org/10.1016/j.dib.2018.11.111,Data in Brief 21 (2018) 2664¡V2678
Mo0.7 Nb1 Ti1 V1 Zr1,CAST,C,25.0,7.0,6.949676036,1,,1706.0,,,130.0207242,32.0,32.0,,Prof.Yeh-RHEA
Mo1.3 Nb1 Ti1 V1 Zr1,,C,25.0,7.3,7.279138633,1,,1496.0,,,150.0167131,30.0,,https://doi.org/10.1016/j.dib.2018.11.111,Data in Brief 21 (2018) 2664¡V2678
Mo1.3 Nb1 Ti1 V1 Zr1,CAST,C,25.0,7.3,7.279138633,1,,1496.0,,,150.0167131,30.0,30.0,,Prof.Yeh-RHEA
Mo1.5 Nb1 Ti1 V1 Zr1,,C,25.0,7.4,7.374721493,1,,1603.0,,,155.8178991,20.0,,https://doi.org/10.1016/j.dib.2018.11.111,Data in Brief 21 (2018) 2664¡V2678
Mo1.5 Nb1 Ti1 V1 Zr1,CAST,C,25.0,7.4,7.374721493,1,,1603.0,,,155.8178991,20.0,20.0,,Prof.Yeh-RHEA
Mo1.7 Nb1 Ti1 V1 Zr1,,C,25.0,7.5,7.464302832,1,,1645.0,,,161.2548363,15.0,,https://doi.org/10.1016/j.dib.2018.11.111,Data in Brief 21 (2018) 2664¡V2678
Mo1.7 Nb1 Ti1 V1 Zr1,CAST,C,25.0,7.5,7.464302832,1,,1645.0,,,161.2548363,15.0,15.0,,Prof.Yeh-RHEA
Mo1 Nb0.588 Ti0.588 V0.588 Zr0.588,ANNEAL,C,25.0,,7.5,1,,1645.0,,,161.0,,15.0,10.1016/j.matdes.2015.06.072,
Mo1 Nb0.5 Ti0.5 V0.5 Zr0.5,ANNEAL,C,25.0,,7.6,1,,1765.0,,,169.0,,12.0,10.1016/j.matdes.2015.06.072,
Mo1 Nb0.667 Ti0.667 V0.2 Zr0.667,ANNEAL,C,25.0,,7.5,1,,1576.0,,,159.0,,8.0,10.1016/j.matdes.2015.06.072,
Mo1 Nb0.667 Ti0.667 V0.667 Zr0.667,ANNEAL,C,25.0,,7.4,1,,1603.0,,,156.0,,20.0,10.1016/j.matdes.2015.06.072,
Mo1 Nb0.769 Ti0.769 V0.231 Zr0.769,ANNEAL,C,25.0,,7.4,1,,1603.0,,,153.0,,20.0,10.1016/j.matdes.2015.06.072,
Mo1 Nb0.769 Ti0.769 V0.769 Zr0.769,ANNEAL,C,25.0,,7.3,1,,1496.0,,,150.0,,30.0,10.1016/j.matdes.2015.06.072,
Mo1 Nb1 Re0.5 W1,CAST,C,25.0,,13.7,1,473.0,896.0,,,298.0,10.4,7.08,10.1016/j.jallcom.2018.11.111,
Mo1 Nb1 Ta1 Ti0.25 W1,CAST,C,25.0,,13.1,1,478.3,1109.0,1197.0,,242.0,,,10.1016/j.msea.2017.12.004,
Mo1 Nb1 Ta1 Ti0.5 W1,CAST,C,25.0,,12.6,1,481.2,1211.0,1578.0,,234.0,,,10.1016/j.msea.2017.12.004,
Mo1 Nb1 Ta1 Ti0.75 W1,CAST,C,25.0,,12.2,1,495.6,1304.0,1593.0,,228.0,,,10.1016/j.msea.2017.12.004,
Mo1 Nb1 Ta1 Ti1,ANNEAL,,,,10.0,1,407.0,,,,179.0,,,10.1016/j.matdes.2018.06.003,
Mo1 Nb1 Ta1 Ti1,CAST,,,,10.0,1,431.0,,,,179.0,,,10.1016/j.matdes.2018.06.003,
Mo1 Nb1 Ta1 Ti1,ANNEAL,C,20.0,,10.0,1,,1210.0,,,179.0,,,10.1016/j.actamat.2019.06.006,
Mo1 Nb1 Ta1 Ti1,ANNEAL,C,60.0,,10.0,1,,1071.0,,,179.0,,,10.1016/j.actamat.2019.06.006,
Mo1 Nb1 Ta1 Ti1,ANNEAL,C,100.0,,10.0,1,,1029.0,,,179.0,,,10.1016/j.actamat.2019.06.006,
Mo1 Nb1 Ta1 Ti1,ANNEAL,C,200.0,,10.0,1,,868.0,,,179.0,,,10.1016/j.actamat.2019.06.006,
Mo1 Nb1 Ta1 Ti1,ANNEAL,C,300.0,,10.0,1,,732.0,,,179.0,,,10.1016/j.actamat.2019.06.006,
Mo1 Nb1 Ta1 Ti1,ANNEAL,C,400.0,,10.0,1,,685.0,,,179.0,,,10.1016/j.actamat.2019.06.006,
Mo1 Nb1 Ta1 Ti1,ANNEAL,C,600.0,,10.0,1,,593.0,,,179.0,,,10.1016/j.actamat.2019.06.006,
Mo1 Nb1 Ta1 Ti1,ANNEAL,C,800.0,,10.0,1,,564.0,,,179.0,,,10.1016/j.actamat.2019.06.006,
Mo1 Nb1 Ta1 Ti1,ANNEAL,C,1000.0,,10.0,1,,539.0,,,179.0,,,10.1016/j.actamat.2019.06.006,
Mo1 Nb1 Ta1 Ti1 V1,CAST,C,25.0,,9.4,1,,1400.0,2450.0,,171.0,,,10.1016/j.jallcom.2016.11.188,
Mo1 Nb1 Ta1 Ti1 V1 W1,CAST,C,600.0,,11.0,1,,973.0,1590.0,,209.0,,,10.1016/j.intermet.2017.01.007,
Mo1 Nb1 Ta1 Ti1 V1 W1,CAST,C,800.0,,11.0,1,,791.3,1180.0,,209.0,,,10.1016/j.intermet.2017.01.007,
Mo1 Nb1 Ta1 Ti1 V1 W1,CAST,C,1000.0,,11.0,1,,752.8,1105.0,,209.0,,,10.1016/j.intermet.2017.01.007,
Mo1 Nb1 Ta1 Ti1 V1 W1,CAST,C,1200.0,,11.0,1,,659.0,696.0,,209.0,,,10.1016/j.intermet.2017.01.007,
Mo1 Nb1 Ta1 Ti1 V1 W1,CAST,C,25.0,,11.0,1,,1515.0,2135.0,,209.0,,,10.1016/j.intermet.2017.01.007,
Mo1 Nb1 Ta1 Ti1 V1 W1,CAST,C,23.0,10.91,11.0,1,,1515.0,,,209.0,,,10.1016/j.actamat.2019.06.032,
Mo1 Nb1 Ta1 Ti1 V1 W1,CAST,C,1000.0,10.91,11.0,1,,753.0,,,209.0,,,10.1016/j.actamat.2019.06.032,
Mo1 Nb1 Ta1 Ti1 V1 W1,CAST,C,1200.0,10.91,11.0,1,,659.0,,,209.0,,,10.1016/j.actamat.2019.06.032,
Mo1 Nb1 Ta1 Ti1 W1,CAST,C,25.0,,11.8,1,507.5,1455.0,1910.0,,222.0,,,10.1016/j.msea.2017.12.004,
Mo1 Nb1 Ta1 Ti1 W1,ANNEAL,,,,11.8,1,482.0,,,,222.0,,,10.1016/j.matdes.2018.06.003,
Mo1 Nb1 Ta1 Ti1 W1,CAST,,,,11.8,1,446.0,,,,222.0,,,10.1016/j.matdes.2018.06.003,
Mo1 Nb1 Ta1 Ti1 W1,CAST,C,600.0,,11.8,1,,689.0,1681.0,,222.0,,,10.1016/j.intermet.2017.01.007,
Mo1 Nb1 Ta1 Ti1 W1,CAST,C,800.0,,11.8,1,,674.0,1618.0,,222.0,,,10.1016/j.intermet.2017.01.007,
Mo1 Nb1 Ta1 Ti1 W1,CAST,C,1000.0,,11.8,1,,620.0,1426.0,,222.0,,,10.1016/j.intermet.2017.01.007,
Mo1 Nb1 Ta1 Ti1 W1,CAST,C,1200.0,,11.8,1,,586.0,814.0,,222.0,,,10.1016/j.intermet.2017.01.007,
Mo1 Nb1 Ta1 Ti1 W1,CAST,C,25.0,,11.8,1,,1343.0,2005.0,,222.0,,,10.1016/j.intermet.2017.01.007,
Mo1 Nb1 Ta1 Ti1 W1,CAST,C,23.0,11.72,11.8,1,,1343.0,,,222.0,,,10.1016/j.actamat.2019.06.032,
Mo1 Nb1 Ta1 Ti1 W1,CAST,C,1000.0,11.72,11.8,1,,620.0,,,222.0,,,10.1016/j.actamat.2019.06.032,
Mo1 Nb1 Ta1 Ti1 W1,CAST,C,1200.0,11.72,11.8,1,,586.0,,,222.0,,,10.1016/j.actamat.2019.06.032,
Mo1 Nb1 Ta1 V1,ANNEAL,C,25.0,,10.7,1,504.0,1525.0,2400.0,,186.0,21.0,,10.3390/e18050189,
Mo1 Nb1 Ta1 V1 W1,POWDER,C,25.0,,12.4,1,,2612.0,3472.0,,229.0,2.0,,10.1016/j.msea.2017.12.021,
Mo1 Nb1 Ta1 V1 W1,CAST,C,25.0,,12.4,1,536.0,1246.0,1270.0,,229.0,13.0,,10.1016/j.intermet.2011.01.004,
Mo1 Nb1 Ta1 V1 W1,CAST,C,600.0,,12.4,1,,862.0,,,229.0,17.0,,10.1016/j.intermet.2011.01.004,
Mo1 Nb1 Ta1 V1 W1,CAST,C,800.0,,12.4,1,,846.0,,,229.0,19.0,,10.1016/j.intermet.2011.01.004,
Mo1 Nb1 Ta1 V1 W1,CAST,C,1000.0,,12.4,1,,842.0,,,229.0,7.5,,10.1016/j.intermet.2011.01.004,
Mo1 Nb1 Ta1 V1 W1,CAST,C,1200.0,,12.4,1,,735.0,,,229.0,40.0,,10.1016/j.intermet.2011.01.004,
Mo1 Nb1 Ta1 V1 W1,CAST,C,1400.0,,12.4,1,,656.0,,,229.0,40.0,,10.1016/j.intermet.2011.01.004,
Mo1 Nb1 Ta1 V1 W1,CAST,C,1600.0,,12.4,1,,477.0,,,229.0,,,10.1016/j.intermet.2011.01.004,
Mo1 Nb1 Ta1 W1,CAST,C,25.0,,13.7,1,,996.0,1148.0,,250.0,2.0,,10.1016/j.msea.2017.12.004,
Mo1 Nb1 Ta1 W1,CAST,C,25.0,,13.7,1,454.0,1058.0,1211.0,,250.0,40.0,,10.1016/j.intermet.2011.01.004,
Mo1 Nb1 Ta1 W1,CAST,C,600.0,,13.7,1,,561.0,,,250.0,40.0,,10.1016/j.intermet.2011.01.004,
Mo1 Nb1 Ta1 W1,CAST,C,800.0,,13.7,1,,552.0,,,250.0,40.0,,10.1016/j.intermet.2011.01.004,
Mo1 Nb1 Ta1 W1,CAST,C,1000.0,,13.7,1,,548.0,,,250.0,40.0,,10.1016/j.intermet.2011.01.004,
Mo1 Nb1 Ta1 W1,CAST,C,1200.0,,13.7,1,,506.0,,,250.0,40.0,,10.1016/j.intermet.2011.01.004,
Mo1 Nb1 Ta1 W1,CAST,C,1400.0,,13.7,1,,421.0,,,250.0,40.0,,10.1016/j.intermet.2011.01.004,
Mo1 Nb1 Ta1 W1,CAST,C,1600.0,,13.7,1,,405.0,,,250.0,,,10.1016/j.intermet.2011.01.004,
Mo1 Nb1 Ta1 W1,POWDER,C,25.0,,13.7,1,504.5,1217.0,,,250.0,7.5,3.8,10.1007/s10853-019-03567-9,
Mo1 Nb1 Ta1 W1,POWDER,,200.0,,13.7,1,420.0,,,,250.0,,,10.1007/s10853-019-03567-9,
Mo1 Nb1 Ta1 W1,POWDER,,400.0,,13.7,1,425.0,,,,250.0,,,10.1007/s10853-019-03567-9,
Mo1 Nb1 Ta1 W1,POWDER,,600.0,,13.7,1,340.0,,,,250.0,,,10.1007/s10853-019-03567-9,
Mo1 Nb1 Ta1 W1,POWDER,,800.0,,13.7,1,335.5,,,,250.0,,,10.1007/s10853-019-03567-9,
Mo1 Nb1 Ti1 V0.25 Zr1,CAST,C,25.0,,7.3,1,,1776.0,3893.0,,142.0,30.0,,10.1007/s11837-012-0366-5,
Mo1 Nb1 Ti1 V0.3 Zr1,ANNEAL,C,25.0,,7.2,1,,1455.0,,,142.0,,25.0,10.1016/j.matdes.2015.06.072,
Mo1 Nb1 Ti1 V0.5 Zr1,CAST,C,25.0,,7.2,1,,1647.0,3307.0,,142.0,28.0,,10.1007/s11837-012-0366-5,
Mo1 Nb1 Ti1 V0.75 Zr1,CAST,C,25.0,,7.2,1,,1708.0,3929.0,,141.0,29.0,,10.1007/s11837-012-0366-5,
Mo1 Nb1 Ti1 V1,CAST,C,25.0,,7.3,1,441.0,1200.0,2050.0,,167.0,26.0,,10.3390/e16020870,
Mo1 Nb1 Ti1 V1 Zr1,ANNEAL,C,25.0,,7.1,1,,1779.0,,,141.0,,32.0,10.1016/j.matdes.2015.06.072,
Mo1 Nb1 Ti1 V1 Zr1,CAST,C,25.0,,7.1,1,,1786.0,3828.0,,,,,10.1007/s11837-012-0366-5,
Mo1 Nb1 Ti1 Zr1,CAST,C,25.0,,7.3,1,,1592.0,3450.0,,143.0,34.0,,10.1007/s11837-012-0366-5,
Mo1 Ta1 Ti1 V1,CAST,C,25.0,,9.6,1,,1221.0,1454.0,,189.0,,,10.4028/www.scientific.net/MSF.898.638,
Mo2 Nb1 Ti1 V1 Zr1,,C,25.0,7.6,7.588602845,1,,1765.0,,,168.7989452,12.0,,https://doi.org/10.1016/j.dib.2018.11.111,Data in Brief 21 (2018) 2664¡V2678
Mo2 Nb1 Ti1 V1 Zr1,CAST,C,25.0,7.6,7.588602845,1,,1765.0,,,168.7989452,12.0,12.0,,Prof.Yeh-RHEA
Mo1 Nb1 Re1 Ta1 W1,CAST,C,25.0,15.138,14.97957603,1,,1000.0,1320.0,,288.2287913,1.7,1.7,,Prof.Yeh-RHEA
Mo1 Nb1 Ta1 Ti0.25 W1,CAST,C,25.0,13.15,13.09564737,1,,1110.0,,,241.768928,2.5,2.5,,Prof.Yeh-RHEA
Mo1 Nb1 Ta1 Ti0.5 W1,CAST,C,25.0,12.7,12.59689771,1,,1210.0,,,234.47241,5.9,5.9,,Prof.Yeh-RHEA
Mo1 Nb1 Ta1 Ti0.75 W1,CAST,C,25.0,12.2,12.15284498,1,,1300.0,,,227.9760874,8.4,8.4,,Prof.Yeh-RHEA
Mo1 Nb1 Ta1 Ti1 V1,CAST,C,25.0,9.29,9.368307877,1,,1400.0,,,170.7411036,33.0,33.0,,Prof.Yeh-RHEA
Mo1 Nb1 Ta1 Ti1 V1 W1,CAST,C,25.0,10.9,10.96726778,1,,1520.0,,,208.9870566,10.6,10.6,,Prof.Yeh-RHEA
Mo1 Nb1 Ta1 Ti1 W1,CAST,C,25.0,11.9,11.75495916,1,,1340.0,,,222.155169,14.1,14.1,,Prof.Yeh-RHEA
Mo1 Nb1 Ta1 V1,,C,25.0,10.7,10.68399594,1,504.0,1525.0,2400.0,,185.5314881,21.0,,https://doi.org/10.1016/j.dib.2018.11.111,Data in Brief 21 (2018) 2664¡V2678
Mo1 Nb1 Ta1 V1,CAST,C,25.0,10.35,10.68399594,1,,1530.0,,,185.5314881,21.8,20.0,,Prof.Yeh-RHEA
Mo1 Nb1 Ta1 V1 W1,,,25.0,12.4,12.37616704,1,,1246.0,,,229.2405322,2.0,,https://doi.org/10.1016/j.dib.2018.11.111,Data in Brief 21 (2018) 2664¡V2678
Mo1 Nb1 Ta1 V1 W1,,,600.0,12.4,12.37616704,1,,862.0,,,229.2405322,13.0,,https://doi.org/10.1016/j.dib.2018.11.111,Data in Brief 21 (2018) 2664¡V2678
Mo1 Nb1 Ta1 V1 W1,,,800.0,12.4,12.37616704,1,,846.0,,,229.2405322,17.0,,https://doi.org/10.1016/j.dib.2018.11.111,Data in Brief 21 (2018) 2664¡V2678
Mo1 Nb1 Ta1 V1 W1,,,1000.0,12.4,12.37616704,1,,842.0,,,229.2405322,19.0,,https://doi.org/10.1016/j.dib.2018.11.111,Data in Brief 21 (2018) 2664¡V2678
Mo1 Nb1 Ta1 V1 W1,,,1200.0,12.4,12.37616704,1,,735.0,,,229.2405322,8.0,,https://doi.org/10.1016/j.dib.2018.11.111,Data in Brief 21 (2018) 2664¡V2678
Mo1 Nb1 Ta1 V1 W1,,,1400.0,12.4,12.37616704,1,,656.0,,,229.2405322,40.0,,https://doi.org/10.1016/j.dib.2018.11.111,Data in Brief 21 (2018) 2664¡V2678
Mo1 Nb1 Ta1 V1 W1,,,1600.0,12.4,12.37616704,1,,477.0,,,229.2405322,40.0,,https://doi.org/10.1016/j.dib.2018.11.111,Data in Brief 21 (2018) 2664¡V2678
Mo1 Nb1 Ta1 V1 W1,,C,25.0,12.4,12.37616704,1,536.0,1246.0,1270.0,,229.2405322,2.0,,https://doi.org/10.1016/j.dib.2018.11.111,Data in Brief 21 (2018) 2664¡V2678
Mo1 Nb1 Ta1 V1 W1,CAST,C,25.0,12.4,12.37616704,1,535.5,1246.0,,,229.2405322,1.7,1.7,,Prof.Yeh-RHEA
Mo1 Nb1 Ta1 W1,,,25.0,13.8,13.65986331,1,,1058.0,,,250.0231927,3.0,,https://doi.org/10.1016/j.dib.2018.11.111,Data in Brief 21 (2018) 2664¡V2678
Mo1 Nb1 Ta1 W1,,,600.0,13.8,13.65986331,1,,561.0,,,250.0231927,40.0,,https://doi.org/10.1016/j.dib.2018.11.111,Data in Brief 21 (2018) 2664¡V2678
Mo1 Nb1 Ta1 W1,,,800.0,13.8,13.65986331,1,,552.0,,,250.0231927,40.0,,https://doi.org/10.1016/j.dib.2018.11.111,Data in Brief 21 (2018) 2664¡V2678
Mo1 Nb1 Ta1 W1,,,1000.0,13.8,13.65986331,1,,548.0,,,250.0231927,40.0,,https://doi.org/10.1016/j.dib.2018.11.111,Data in Brief 21 (2018) 2664¡V2678
Mo1 Nb1 Ta1 W1,,,1200.0,13.8,13.65986331,1,,506.0,,,250.0231927,40.0,,https://doi.org/10.1016/j.dib.2018.11.111,Data in Brief 21 (2018) 2664¡V2678
Mo1 Nb1 Ta1 W1,,,1400.0,13.8,13.65986331,1,,421.0,,,250.0231927,40.0,,https://doi.org/10.1016/j.dib.2018.11.111,Data in Brief 21 (2018) 2664¡V2678
Mo1 Nb1 Ta1 W1,,,1600.0,13.8,13.65986331,1,,405.0,,,250.0231927,40.0,,https://doi.org/10.1016/j.dib.2018.11.111,Data in Brief 21 (2018) 2664¡V2678
Mo1 Nb1 Ta1 W1,,C,25.0,13.7,13.65986331,1,454.0,1058.0,1211.0,,250.0231927,2.0,,https://doi.org/10.1016/j.dib.2018.11.111,Data in Brief 21 (2018) 2664¡V2678
Mo1 Nb1 Ta1 W1,CAST,C,25.0,13.8,13.65986331,1,454.0,1058.0,,,250.0231927,2.1,2.1,,Prof.Yeh-RHEA
Mo1 Nb1 Ti1 V1,,C,25.0,7.3,7.343754914,1,441.0,1200.0,,,166.5144243,26.0,,https://doi.org/10.1016/j.dib.2018.11.111,Data in Brief 21 (2018) 2664¡V2678
Mo1 Nb1 Ti1 V1,CAST,C,25.0,7.3,7.343754914,1,441.0,1200.0,,170.0,166.5144243,26.0,25.0,,Prof.Yeh-RHEA
Mo1 Nb1 Ti1 V0.25 Zr1,,C,25.0,7.3,7.256075719,1,,1776.0,3893.0,,142.2153355,30.0,,https://doi.org/10.1016/j.dib.2018.11.111,Data in Brief 21 (2018) 2664¡V2678
Mo1 Nb1 Ti1 V0.25 Zr1,CAST,C,25.0,7.255,7.256075719,1,,1780.0,,,142.2153355,30.1,19.3,,Prof.Yeh-RHEA
Mo1 Nb1 Ti1 V0.50 Zr1,,C,25.0,7.2,7.207997756,1,,1647.0,3307.0,,141.6122782,28.0,,https://doi.org/10.1016/j.dib.2018.11.111,Data in Brief 21 (2018) 2664¡V2678
Mo1 Nb1 Ti1 V0.50 Zr1,CAST,C,25.0,7.205,7.207997756,1,,1650.0,,,141.6122782,28.1,18.0,,Prof.Yeh-RHEA
Mo1 Nb1 Ti1 V0.75 Zr1,,C,25.0,7.2,7.163833007,1,,1708.0,3929.0,,141.0583056,29.0,,https://doi.org/10.1016/j.dib.2018.11.111,Data in Brief 21 (2018) 2664¡V2678
Mo1 Nb1 Ti1 V0.75 Zr1,CAST,C,25.0,7.165,7.163833007,1,,1710.0,,,141.0583056,29.3,15.5,,Prof.Yeh-RHEA
Mo1 Nb1 Ti1 V1.0 Zr1,,C,25.0,7.1,7.123122391,1,,1786.0,3828.0,,140.5476593,26.0,,https://doi.org/10.1016/j.dib.2018.11.111,Data in Brief 21 (2018) 2664¡V2678
Mo1 Nb1 Ti1 V1.0 Zr1,CAST,C,25.0,7.125,7.123122391,1,,1790.0,,,140.5476593,25.9,16.7,,Prof.Yeh-RHEA
Mo1 Nb1 Ti1 V1.5 Zr1,,C,25.0,7.1,7.050560244,1,,1735.0,3300.0,,139.6374891,20.0,,https://doi.org/10.1016/j.dib.2018.11.111,Data in Brief 21 (2018) 2664¡V2678
Mo1 Nb1 Ti1 V1.5 Zr1,CAST,C,25.0,7.055,7.050560244,1,,1735.0,,,139.6374891,20.1,13.2,,Prof.Yeh-RHEA
Mo1 Nb1 Ti1 V2.0 Zr1,,C,25.0,7.0,6.987813039,1,,1538.0,3176.0,,138.8504308,23.0,,https://doi.org/10.1016/j.dib.2018.11.111,Data in Brief 21 (2018) 2664¡V2678
Mo1 Nb1 Ti1 V2.0 Zr1,CAST,C,25.0,6.985,6.987813039,1,,1540.0,,,138.8504308,23.2,15.5,,Prof.Yeh-RHEA
Mo1 Nb1 Ti1 V3.0 Zr1,,C,25.0,6.9,6.884746957,1,,1418.0,2508.0,,137.55764,24.0,,https://doi.org/10.1016/j.dib.2018.11.111,Data in Brief 21 (2018) 2664¡V2678
Mo1 Nb1 Ti1 V3.0 Zr1,CAST,C,25.0,6.885,6.884746957,1,,1420.0,,,137.55764,23.6,16.4,,Prof.Yeh-RHEA
Mo1 Nb1 Ti1 V1 Zr1,,C,25.0,7.1,7.123122391,1,,1779.0,,,140.5476593,32.0,,https://doi.org/10.1016/j.dib.2018.11.111,Data in Brief 21 (2018) 2664¡V2678
Mo1 Nb1 Ti1 V1 Zr1,CAST,C,25.0,7.1,7.123122391,1,,1779.0,,,140.5476593,32.0,32.0,,Prof.Yeh-RHEA
Mo1 Nb1 Ti1 Zr1,,C,25.0,7.3,7.308611099,1,,1592.0,3450.0,,142.8743035,34.0,,https://doi.org/10.1016/j.dib.2018.11.111,Data in Brief 21 (2018) 2664¡V2678
Mo1 Nb1 Ti1 Zr1,CAST,C,25.0,7.305,7.308611099,1,,1590.0,,,142.8743035,33.5,21.9,,Prof.Yeh-RHEA
Nb1 Ta1 Ti1,CAST,T,25.0,,10.0,1,246.0,620.0,683.0,143.0,136.0,,,10.3390/e21020114,
Nb1 Ta1 Ti1,WROUGHT,C,20.0,,10.0,1,,573.0,,,136.0,,,10.1016/j.actamat.2019.06.006,
Nb1 Ta1 Ti1,WROUGHT,C,100.0,,10.0,1,,486.0,,,136.0,,,10.1016/j.actamat.2019.06.006,
Nb1 Ta1 Ti1,WROUGHT,C,200.0,,10.0,1,,378.0,,,136.0,,,10.1016/j.actamat.2019.06.006,
Nb1 Ta1 Ti1,WROUGHT,C,300.0,,10.0,1,,314.0,,,136.0,,,10.1016/j.actamat.2019.06.006,
Nb1 Ta1 Ti1,WROUGHT,C,400.0,,10.0,1,,232.0,,,136.0,,,10.1016/j.actamat.2019.06.006,
Nb1 Ta1 Ti1,WROUGHT,C,600.0,,10.0,1,,222.0,,,136.0,,,10.1016/j.actamat.2019.06.006,
Nb1 Ta1 Ti1,WROUGHT,C,800.0,,10.0,1,,210.0,,,136.0,,,10.1016/j.actamat.2019.06.006,
Nb1 Ta1 Ti1,WROUGHT,C,1000.0,,10.0,1,,160.0,,,136.0,18.5,,10.1016/j.actamat.2019.06.006,
Nb1 Ta1 Ti1 V1,CAST,C,25.0,,9.2,1,,1092.0,,,134.0,,,10.1016/j.proeng.2012.03.043,
Nb1 Ta1 Ti1 V1,CAST,C,25.0,,9.2,1,,965.0,,,134.0,,,10.1016/j.msea.2016.07.102,
Nb1 Ta1 Ti1 V1,POWDER,C,25.0,,9.2,1,427.9,1108.0,,,134.0,28.3,,10.1016/j.jallcom.2018.10.230,
Nb1 Ta1 Ti1 V1,POWDER,C,25.0,,9.2,1,444.3,1308.0,,,134.0,27.9,,10.1016/j.jallcom.2018.10.230,
Nb1 Ta1 Ti1 V1,POWDER,C,25.0,,9.2,1,510.9,1373.0,,,134.0,29.5,,10.1016/j.jallcom.2018.10.230,
Nb1 Ta1 Ti1 V1 W1,CAST,C,25.0,,11.1,1,,1420.0,1800.0,,187.0,20.0,,10.1016/j.msea.2016.07.102,
Nb1 Ta1 Ti1 W1,ANNEAL,C,20.0,,12.1,1,,1054.0,,,198.0,,,10.1016/j.actamat.2019.06.006,
Nb1 Ta1 Ti1 W1,ANNEAL,C,100.0,,12.1,1,,968.0,,,198.0,,,10.1016/j.actamat.2019.06.006,
Nb1 Ta1 Ti1 W1,ANNEAL,C,200.0,,12.1,1,,869.0,,,198.0,,,10.1016/j.actamat.2019.06.006,
Nb1 Ta1 Ti1 W1,ANNEAL,C,300.0,,12.1,1,,754.0,,,198.0,,,10.1016/j.actamat.2019.06.006,
Nb1 Ta1 Ti1 W1,ANNEAL,C,400.0,,12.1,1,,627.0,,,198.0,,,10.1016/j.actamat.2019.06.006,
Nb1 Ta1 Ti1 W1,ANNEAL,C,600.0,,12.1,1,,596.0,,,198.0,,,10.1016/j.actamat.2019.06.006,
Nb1 Ta1 Ti1 W1,ANNEAL,C,800.0,,12.1,1,,564.0,,,198.0,,,10.1016/j.actamat.2019.06.006,
Nb1 Ta1 Ti1 W1,ANNEAL,C,1000.0,,12.1,1,,459.0,,,198.0,,,10.1016/j.actamat.2019.06.006,