FORMULA,Process Method,Measurement Method,Measuremet T (?°C),Structure: Exp Density (g/cm^3),Structure: Calculated Density (g/cm^3),Structure: Microstructure,Mechanics: Hardness (HV),Mechanics: Yield strength (MPa),Mechanics: Ultra tensle strength (MPa),Mechanics: Exp Young modulus (GPa),Mechanics: Calculated Young modulus (GPa),Mechanics: Fracture Elongation (%),Mechanics: Plastic Elongation (%),Others: DOI,Others: Reference
Al1Nb1Ti1V1Zr0.5,,C,25,5.64,5.6,,,1480,,,,50,,10.1016/j.matlet.2015.08.099,
Al1Nb1Ti1V1Zr1,ANNEAL,C,600,,5.8,B2+Laves+Sec.,,1155,1385,,,,,10.1016/j.msea.2017.08.019,
Al1Nb1Ti1V1Zr1,ANNEAL,C,800,,5.8,B2+Laves+Sec.,,550,600,,,,,10.1016/j.msea.2017.08.019,
Al1Nb1Ti1V1Zr1,ANNEAL,C,25,,5.8,B2+Laves+Sec.,,1500,1675,,,,,10.1016/j.msea.2017.08.019,
Al1Nb1Ti1Zr1,,C,25,5.79,5.7,,539.6,1080,,,,8.6,,10.1179/1743284715Y.0000000032,
Al1Nb1Ti1Zr1,CAST,C,25,5.85,5.7,B2,422,1509,,,,17.8,,10.1080/02670836.2018.1446267,
Al1Nb1Ti1Zr1,ANNEAL,C,25,,5.7,B2+Sec.,418,1579,,,,5.9,,10.1080/02670836.2018.1446267,
Al2.0Co1Cr1Cu1Fe1,,,25,5.9,5.910257218,FCC+BCC,567,,,,150.3428274,,,https://doi.org/10.1016/j.dib.2018.11.111,Data in Brief 21 (2018) 2664¡V2678
Al2.0Co1Cr1Cu1Fe1Ni1,,C,25,6.275,6.271288576,FCC+BCC,560,1620,,,156.3263851,,,,Prof.Yeh-3dtransitional
Al2.3Co1Cr1Cu1Fe1,,,25,5.7,5.721679722,FCC+BCC,603,,,,145.6260274,,,https://doi.org/10.1016/j.dib.2018.11.111,Data in Brief 21 (2018) 2664¡V2678
Al2.3Co1Cr1Cu1Fe1Ni1,,,25,6.1,6.085478138,FCC+BCC,600,,,,151.8372335,,,https://doi.org/10.1016/j.dib.2018.11.111,Data in Brief 21 (2018) 2664¡V2678
Al2.5Co1Cr1Cu1Fe1,,,25,5.6,5.607799275,FCC+BCC,624,,,,142.7775895,,,https://doi.org/10.1016/j.dib.2018.11.111,Data in Brief 21 (2018) 2664¡V2678
Al2.5Co1Cr1Cu1Fe1Ni1,,,25,6,5.971980926,FCC+BCC,620,,,,149.0951583,,,https://doi.org/10.1016/j.dib.2018.11.111,Data in Brief 21 (2018) 2664¡V2678
Al2.5Co1Cr1Fe1Ni1,,,25,5.6,5.570968838,BCC,487,,,,151.6772537,,,https://doi.org/10.1016/j.dib.2018.11.111,Data in Brief 21 (2018) 2664¡V2678
Al2.8Co1Cr1Cu1Fe1,,,25,5.5,5.452203263,BCC,657,,,,138.8857398,,,https://doi.org/10.1016/j.dib.2018.11.111,Data in Brief 21 (2018) 2664¡V2678
Al2.8Co1Cr1Cu1Fe1Ni1,,,25,5.8,5.815313496,BCC,650,,,,145.3100973,,,https://doi.org/10.1016/j.dib.2018.11.111,Data in Brief 21 (2018) 2664¡V2678
Al22.5Cu20Fe15Ni20Ti22.5,,C,25,5.9,5.879319466,FCC,516,980,1326,140,131.1704646,7,,https://doi.org/10.1016/j.dib.2018.11.111,Data in Brief 21 (2018) 2664¡V2678
Al2Co1Cr1Cu1Fe1Ni1,,,1000,6.3,6.271288576,BCC,,116,,,156.3263851,,,https://doi.org/10.1016/j.dib.2018.11.111,Data in Brief 21 (2018) 2664¡V2678
Al2Co1Cr1Cu1Fe1Ni1,,,1100,6.3,6.271288576,BCC,,79,,,156.3263851,,,https://doi.org/10.1016/j.dib.2018.11.111,Data in Brief 21 (2018) 2664¡V2678
Al2Co1Cr1Cu1Fe1Ni1,,,25,6.3,6.271288576,BCC,,1620,,,156.3263851,,,https://doi.org/10.1016/j.dib.2018.11.111,Data in Brief 21 (2018) 2664¡V2678
Al2Co1Cr1Cu1Fe1Ni1,,,600,6.3,6.271288576,BCC,,805,,,156.3263851,,,https://doi.org/10.1016/j.dib.2018.11.111,Data in Brief 21 (2018) 2664¡V2678
Al2Co1Cr1Cu1Fe1Ni1,,,500,6.3,6.271288576,BCC,,1120,,,156.3263851,,,https://doi.org/10.1016/j.dib.2018.11.111,Data in Brief 21 (2018) 2664¡V2678
Al2Co1Cr1Cu1Fe1Ni1,,,700,6.3,6.271288576,BCC,,567,,,156.3263851,,,https://doi.org/10.1016/j.dib.2018.11.111,Data in Brief 21 (2018) 2664¡V2678
Al2Co1Cr1Cu1Fe1Ni1,,,900,6.3,6.271288576,BCC,,214,,,156.3263851,,,https://doi.org/10.1016/j.dib.2018.11.111,Data in Brief 21 (2018) 2664¡V2678
Al2Co1Cr1Cu1Fe1Ni1,,,800,6.3,6.271288576,BCC,,302,,,156.3263851,,,https://doi.org/10.1016/j.dib.2018.11.111,Data in Brief 21 (2018) 2664¡V2678
Al2Co1Cr1Cu1Fe1Ni1,,C,25,6.3,6.271288576,FCC+BCC,560,1620,,,156.3263851,,,https://doi.org/10.1016/j.dib.2018.11.111,Data in Brief 21 (2018) 2664¡V2678
Al2Co1Cr1Fe1Mo0.5Ni1,,,25,6.3,6.263645919,BCC,605,,,,175.4008035,,,https://doi.org/10.1016/j.dib.2018.11.111,Data in Brief 21 (2018) 2664¡V2678
Al2Co1Cr1Fe1Ni1,,,25,5.9,5.872861963,BCC,509,,,,160.2604035,,,https://doi.org/10.1016/j.dib.2018.11.111,Data in Brief 21 (2018) 2664¡V2678
Al2Co1Cr1Fe1Ni1,,,25,5.9,5.872861963,BCC,512,,,,160.2604035,,,https://doi.org/10.1016/j.dib.2018.11.111,Data in Brief 21 (2018) 2664¡V2678
Al2Co1Cr1Fe1Ni1,,,25,5.9,5.872861963,BCC,432,,,,160.2604035,,,https://doi.org/10.1016/j.dib.2018.11.111,Data in Brief 21 (2018) 2664¡V2678
Al2Co1Cr1Fe1Ni1Ti1,,C,25,5.6,5.621741192,BCC,643,,1030,165,152.1715905,5,,https://doi.org/10.1016/j.dib.2018.11.111,Data in Brief 21 (2018) 2664¡V2678
Al2Cr1Cu1Fe1Ni2,,C,,,6.276084549,BCC,,,,,155.1631569,,,,Paper_Collection_5_element
Al3.0Co1Cr1Cu1Fe1,,,25,5.4,5.357399497,BCC,644,,,,136.5144578,,,https://doi.org/10.1016/j.dib.2018.11.111,Data in Brief 21 (2018) 2664¡V2678
Al3Co1Cr1Cu1Fe1Ni1,,,25,5.7,5.718941271,BCC,640,,,,142.9817592,,,https://doi.org/10.1016/j.dib.2018.11.111,Data in Brief 21 (2018) 2664¡V2678
Al3Co1Cr1Fe1Ni1,,,25,5.3,5.321505919,BCC,506,,,,144.5847516,,,https://doi.org/10.1016/j.dib.2018.11.111,Data in Brief 21 (2018) 2664¡V2678
Al3Cr1Cu1Fe1Ni2,,C,,,5.722311032,BCC+B2,,,,,141.9820461,,,,Paper_Collection_5_element
Al8Co20Cr18Fe9Nb4Ni41,ANNEAL,C,,,7.783905237,FCC,,,,,196.765211,,,,Paper_Collection_6_element
Al8Co20Cr18Fe9Nb4Ni41,ANNEAL,C,,,7.783905237,FCC+Sec.,,,,,196.765211,,,,Paper_Collection_6_element
Al8Co20Cr18Fe9Nb4Ni41,ANNEAL,C,,,7.783905237,FCC+Sec.,450,,,,196.765211,,,,Paper_Collection_6_element
Al8Cu0.5Li0.5Mg0.5Zn0.5,,C,25,2.9,2.911631746,FCC+Sec.,,488,879,,67.91961238,17,,https://doi.org/10.1016/j.dib.2018.11.111,Data in Brief 21 (2018) 2664¡V2678
Al8Li0.5Mg0.5Sn0.5Zn0.5,,C,25,3,3.045463442,FCC+Sec.,,415,836,,64.46829199,16,,https://doi.org/10.1016/j.dib.2018.11.111,Data in Brief 21 (2018) 2664¡V2678
Al1C0.1Co1Cr1Fe1Ni1,,C,25,6.7,6.65591602,BCC+Sec.,,957,2550,,,11,,https://doi.org/10.1016/j.dib.2018.11.111,Data in Brief 21 (2018) 2664¡V2678
Al1C0.2Co1Cr1Fe1Ni1,,C,25,6.8,6.595873844,BCC+Sec.,,906,2386,,,9,,https://doi.org/10.1016/j.dib.2018.11.111,Data in Brief 21 (2018) 2664¡V2678
Al1C0.3Co1Cr1Fe1Ni1,,C,25,6.8,6.53745356,BCC+Sec.,,867,2178,,,8,,https://doi.org/10.1016/j.dib.2018.11.111,Data in Brief 21 (2018) 2664¡V2678
Al1C0.4Co1Cr1Fe1Ni1,,C,25,6.8,6.480590326,BCC+Sec.,,1056,2375,,,7,,https://doi.org/10.1016/j.dib.2018.11.111,Data in Brief 21 (2018) 2664¡V2678
Al1C0.5Co1Cr1Fe1Ni1,,C,25,6.8,6.425222712,BCC+Sec.,,1060,2250,,,6,,https://doi.org/10.1016/j.dib.2018.11.111,Data in Brief 21 (2018) 2664¡V2678
Al1C1.5Co1Cr1Fe1Ni1,,C,25,7,5.942332936,BCC+Sec.,,1255,2083,,,6,,https://doi.org/10.1016/j.dib.2018.11.111,Data in Brief 21 (2018) 2664¡V2678
Al1C1Co1Cr1Fe1Ni1,,C,25,6.9,6.16888112,BCC+Sec.,,1251,2166,,,7,,https://doi.org/10.1016/j.dib.2018.11.111,Data in Brief 21 (2018) 2664¡V2678
Al1Co0.5Cr1Fe1Mo0.5Ni1,,,25,7,6.959101993,BCC+Sec.,801,,,,199.5938102,,,https://doi.org/10.1016/j.dib.2018.11.111,Data in Brief 21 (2018) 2664¡V2678
Al1Co1.5Cr1Fe1Mo0.5Ni1,,,25,7.2,7.233545249,BCC+Sec.,741,,,,200.9695209,,,https://doi.org/10.1016/j.dib.2018.11.111,Data in Brief 21 (2018) 2664¡V2678
Al1Co2Cr1Fe1Mo0.5Ni1,,,25,7.3,7.342714111,FCC+BCC+Sec.,586,,,,201.5167552,,,https://doi.org/10.1016/j.dib.2018.11.111,Data in Brief 21 (2018) 2664¡V2678
Al1Co1Cr1Cu1Fe1,,,25,6.8,6.753328966,FCC+BCC,407,,,,171.4301837,,,https://doi.org/10.1016/j.dib.2018.11.111,Data in Brief 21 (2018) 2664¡V2678
Al1Co1Cr1Cu1Fe1Mn1Ni1,,C,25,7.1,7.12784932,FCC+BCC+Sec.,,1005,,,178.8007302,15,,https://doi.org/10.1016/j.dib.2018.11.111,Data in Brief 21 (2018) 2664¡V2678
Al1Co1Cr1Cu1Fe1Mn1Ti1V1,,C,25,6.39,6.381747844,Other,,1860,,,159.6955442,0.95,,,Prof.Yeh-3dtransitional
Al1Co1Cr1Cu1Fe1Ni1,,,1000,7.1,7.07082644,FCC+BCC,,47,,,175.6430969,,,https://doi.org/10.1016/j.dib.2018.11.111,Data in Brief 21 (2018) 2664¡V2678
Al1Co1Cr1Cu1Fe1Ni1,,,25,7.1,7.07082644,FCC+BCC,,948,,,175.6430969,,,https://doi.org/10.1016/j.dib.2018.11.111,Data in Brief 21 (2018) 2664¡V2678
Al1Co1Cr1Cu1Fe1Ni1,,,600,7.1,7.07082644,FCC+BCC,,561,,,175.6430969,,,https://doi.org/10.1016/j.dib.2018.11.111,Data in Brief 21 (2018) 2664¡V2678
Al1Co1Cr1Cu1Fe1Ni1,,,700,7.1,7.07082644,FCC+BCC,,307,,,175.6430969,,,https://doi.org/10.1016/j.dib.2018.11.111,Data in Brief 21 (2018) 2664¡V2678
Al1Co1Cr1Cu1Fe1Ni1,,,800,7.1,7.07082644,FCC+BCC,,172,,,175.6430969,,,https://doi.org/10.1016/j.dib.2018.11.111,Data in Brief 21 (2018) 2664¡V2678
Al1Co1Cr1Cu1Fe1Ni1,,,900,7.1,7.07082644,FCC+BCC,,98,,,175.6430969,,,https://doi.org/10.1016/j.dib.2018.11.111,Data in Brief 21 (2018) 2664¡V2678
Al1Co1Cr1Cu1Fe1Ni1,,C,25,7.1,7.07082644,FCC+BCC,406,950,,,175.6430969,,,https://doi.org/10.1016/j.dib.2018.11.111,Data in Brief 21 (2018) 2664¡V2678
Al1Co1Cr1Cu1Fe1Ni1,,,25,7.1,7.07082644,FCC+BCC,472,,,,175.6430969,,,https://doi.org/10.1016/j.dib.2018.11.111,Data in Brief 21 (2018) 2664¡V2678
Al1Co1Cr1Cu1Fe1Ni1,,C,25,7.1,7.07082644,FCC+BCC,,1303,,,175.6430969,24,,https://doi.org/10.1016/j.dib.2018.11.111,Data in Brief 21 (2018) 2664¡V2678
Al1Co1Cr1Cu1Fe1Ni1,,C,25,7.075,7.07082644,FCC+BCC,,1300,,,175.6430969,,,,Prof.Yeh-3dtransitional
Al1Co1Cr1Cu1Fe1Ni1Mn1,,C,25,7.125,7.12784932,FCC+BCC+Sec.,,1000,,,178.8007302,15,,,Prof.Yeh-3dtransitional
Al1Co1Cr1Cu1Fe1Ni1Ti1,,C,25,6.6,6.576219657,FCC+BCC,,1234,,,164.1736852,9,,https://doi.org/10.1016/j.dib.2018.11.111,Data in Brief 21 (2018) 2664¡V2678
Al1Co1Cr1Cu1Fe1Ni1Ti1,,T,25,6.575,6.576219657,FCC+BCC,,1230,,,164.1736852,9,,,Prof.Yeh-3dtransitional
Al1Co1Cr1Cu1Fe1Ni1V1,,C,25,6.9,6.922028553,FCC+BCC,,1469,,,168.1654405,16,,https://doi.org/10.1016/j.dib.2018.11.111,Data in Brief 21 (2018) 2664¡V2678
Al1Co1Cr1Cu1Fe1Ni1V1,,T,25,6.925,6.922028553,FCC+BCC,,1470,,,168.1654405,16,,,Prof.Yeh-3dtransitional
Al1Co1Cr1Cu1Ni1Ti1,,C,25,6.4,6.385100199,BCC,,,1495,167,157.2914594,8,,https://doi.org/10.1016/j.dib.2018.11.111,Data in Brief 21 (2018) 2664¡V2678
Al1Co1Cr1Cu1Ni1Ti1Y1,,C,25,5.8,5.826821544,Other,,,1192,,130.0654727,4,,https://doi.org/10.1016/j.dib.2018.11.111,Data in Brief 21 (2018) 2664¡V2678
Al1Co1Cr1Cu1Ni1Ti1Y0.5,,C,25,6.1,6.058270172,Other,,,1025,,141.3526985,3,,https://doi.org/10.1016/j.dib.2018.11.111,Data in Brief 21 (2018) 2664¡V2678
Al1Co1Cr1Cu1Ni1Ti1Y0.8,,C,25,5.9,5.910793115,Other,,,1325,,134.1605762,5,,https://doi.org/10.1016/j.dib.2018.11.111,Data in Brief 21 (2018) 2664¡V2678
Al1Co1Cr1Fe0.5Mo0.5Ni1,,,25,7,7.036713586,BCC+Sec.,755,,,,199.3597159,,,https://doi.org/10.1016/j.dib.2018.11.111,Data in Brief 21 (2018) 2664¡V2678
Al1Co1Cr1Fe0.6Mo0.5Ni1,,,25,7.1,7.051814008,BCC+Sec.,754,,,,199.5690014,,,https://doi.org/10.1016/j.dib.2018.11.111,Data in Brief 21 (2018) 2664¡V2678
Al1Co1Cr1Fe1.5Mo0.5Ni1,,,25,7.2,7.166686317,BCC+Sec.,635,,,,201.1610826,,,https://doi.org/10.1016/j.dib.2018.11.111,Data in Brief 21 (2018) 2664¡V2678
Al1Co1Cr1Fe2Mo0.5Ni1,,,25,7.2,7.217670859,BCC+Sec.,639,,,,201.8677066,,,https://doi.org/10.1016/j.dib.2018.11.111,Data in Brief 21 (2018) 2664¡V2678
Al1Co1Cr1Fe1Mo0.1Ni1,,C,25,6.8,6.803137068,BCC,,1804,2280,,187.8028973,9,,https://doi.org/10.1016/j.dib.2018.11.111,Data in Brief 21 (2018) 2664¡V2678
Al1Co1Cr1Fe1Mo0.2Ni1,,C,25,6.9,6.884560868,BCC+Sec.,,2456,2953,,191.1596208,3,,https://doi.org/10.1016/j.dib.2018.11.111,Data in Brief 21 (2018) 2664¡V2678
Al1Co1Cr1Fe1Mo0.3Ni1,,C,25,7,6.962203139,BCC+Sec.,,2649,3208,,194.3604496,3,,https://doi.org/10.1016/j.dib.2018.11.111,Data in Brief 21 (2018) 2664¡V2678
Al1Co1Cr1Fe1Mo0.4Ni1,,C,25,7,7.036321339,BCC+Sec.,,2670,3161,,197.4159973,3,,https://doi.org/10.1016/j.dib.2018.11.111,Data in Brief 21 (2018) 2664¡V2678
Al1Co1Cr1Fe1Mo0.5,,,25,6.8,6.774827175,BCC+Sec.,857,,,,200.3979821,,,https://doi.org/10.1016/j.dib.2018.11.111,Data in Brief 21 (2018) 2664¡V2678
Al1Co1Cr1Fe1Mo0.5Ni1,,C,25,7.1,7.107150073,BCC+Sec.,,2757,3036,,200.3359357,3,,https://doi.org/10.1016/j.dib.2018.11.111,Data in Brief 21 (2018) 2664¡V2678
Al1Co1Cr1Fe1Mo0.5Ni1,,,25,7.1,7.107150073,BCC+Sec.,796,,,,200.3359357,,,https://doi.org/10.1016/j.dib.2018.11.111,Data in Brief 21 (2018) 2664¡V2678
Al1Co1Cr1Fe1Mo0.5Ni1,,,25,7.1,7.107150073,BCC+Sec.,715,,,,200.3359357,,,https://doi.org/10.1016/j.dib.2018.11.111,Data in Brief 21 (2018) 2664¡V2678
Al1Co1Cr1Fe1Mo0.5Ni1,,,25,7.1,7.107150073,BCC+Sec.,730,,,,200.3359357,,,https://doi.org/10.1016/j.dib.2018.11.111,Data in Brief 21 (2018) 2664¡V2678
Al1Co1Cr1Fe1Mo0.5Ni0.5,,,25,7,6.955036141,BCC+Sec.,708,,,,200.3643361,,,https://doi.org/10.1016/j.dib.2018.11.111,Data in Brief 21 (2018) 2664¡V2678
Al1Co1Cr1Fe1Mo0.5Ni1.5,,,25,7.2,7.237263988,FCC+BCC+Sec.,586,,,,200.3116427,,,https://doi.org/10.1016/j.dib.2018.11.111,Data in Brief 21 (2018) 2664¡V2678
Al1Co1Cr1Fe1Mo0.5Ni2,,,25,7.4,7.349828768,FCC+BCC+Sec.,395,,,,200.2906263,,,https://doi.org/10.1016/j.dib.2018.11.111,Data in Brief 21 (2018) 2664¡V2678
Al1Co1Cr1Fe1Nb0.1Ni1,,C,25,6.8,6.769776572,BCC,569,1641,3285,,182.0579107,17,,https://doi.org/10.1016/j.dib.2018.11.111,Data in Brief 21 (2018) 2664¡V2678
Al1Co1Cr1Fe1Nb0.25Ni1,,C,25,6.8,6.84271371,BCC+Sec.,668,1959,3008,,178.9507291,11,,https://doi.org/10.1016/j.dib.2018.11.111,Data in Brief 21 (2018) 2664¡V2678
Al1Co1Cr1Fe1Nb0.5Ni1,,C,25,7,6.952027529,BCC+Sec.,747,2473,3170,,174.2938714,4,,https://doi.org/10.1016/j.dib.2018.11.111,Data in Brief 21 (2018) 2664¡V2678
Al1Co1Cr1Fe1Nb0.75Ni1,,,25,7,7.048389445,BCC+Sec.,,,,,170.1887752,,,https://doi.org/10.1016/j.dib.2018.11.111,Data in Brief 21 (2018) 2664¡V2678
Al1Co1Cr1Fe1Ni1,,,25,6.7,6.717648579,BCC,484,,,,184.2786056,,,https://doi.org/10.1016/j.dib.2018.11.111,Data in Brief 21 (2018) 2664¡V2678
Al1Co1Cr1Fe1Ni1,,,25,6.7,6.717648579,FCC+BCC,433,,,,184.2786056,,,https://doi.org/10.1016/j.dib.2018.11.111,Data in Brief 21 (2018) 2664¡V2678
Al1Co1Cr1Fe1Ni1,,,25,6.7,6.717648579,BCC,395,,,,184.2786056,,,https://doi.org/10.1016/j.dib.2018.11.111,Data in Brief 21 (2018) 2664¡V2678
Al1Co1Cr1Fe1Ni1,,C,25,6.7,6.717648579,BCC,,1251,2004,,184.2786056,33,,https://doi.org/10.1016/j.dib.2018.11.111,Data in Brief 21 (2018) 2664¡V2678
Al1Co1Cr1Fe1Ni1,,C,25,6.7,6.717648579,BCC,,1051,,,184.2786056,,,https://doi.org/10.1016/j.dib.2018.11.111,Data in Brief 21 (2018) 2664¡V2678
Al1Co1Cr1Fe1Ni1,,C,25,6.7,6.717648579,BCC,,1110,,,184.2786056,,,https://doi.org/10.1016/j.dib.2018.11.111,Data in Brief 21 (2018) 2664¡V2678
Al1Co1Cr1Fe1Ni1,,C,25,6.7,6.717648579,BCC,,1138,,194,184.2786056,,,https://doi.org/10.1016/j.dib.2018.11.111,Data in Brief 21 (2018) 2664¡V2678
Al1Co1Cr1Fe1Ni1,,C,25,6.7,6.717648579,BCC,,1138,,194,184.2786056,11,,https://doi.org/10.1016/j.dib.2018.11.111,Data in Brief 21 (2018) 2664¡V2678
Al1Co1Cr1Fe1Ni1,,C,25,6.7,6.717648579,BCC,520,1373,3531,,184.2786056,25,,https://doi.org/10.1016/j.dib.2018.11.111,Data in Brief 21 (2018) 2664¡V2678
Al1Co1Cr1Fe1Ni1,ANNEAL,C,,,6.717648579,FCC+BCC+B2+Sec.,,,,,184.2786056,,,,Paper_Collection_5_element
Al1Co1Cr1Fe1Ni1,ANNEAL,C,,,6.717648579,FCC+BCC+B2,,,,,184.2786056,,,,Paper_Collection_5_element
Al1Co1Cr1Fe1Ni1,ANNEAL,C,,,6.717648579,FCC+B2,,,,,184.2786056,,,,Paper_Collection_5_element
Al1Co1Cr1Fe1Ni1,,C,25,6.715,6.717648579,BCC,,1140,,125,184.2786056,14,,,Prof.Yeh-3dtransitional
Al1Co1Cr1Fe1Ni1,,C,25,6.715,6.717648579,BCC,520,1370,,,184.2786056,15,,,Prof.Yeh-3dtransitional
Al1Co1Cr1Fe1Ni1,,C,25,6.715,6.717648579,BCC,,1050,,,184.2786056,22,,,Prof.Yeh-3dtransitional
Al1Co1Cr1Fe1Ni1,,C,25,6.715,6.717648579,BCC,457.5,1150,,125,184.2786056,,,,Prof.Yeh-3dtransitional
Al1Co1Cr1Fe1Ni1C0.1,,C,25,6.745,6.65591602,BCC+Sec.,,966,,213,,10.5,,,Prof.Yeh-3dtransitional
Al1Co1Cr1Fe1Ni1C0.2,,C,25,6.765,6.595873844,BCC+Sec.,,906,,151,,8.68,,,Prof.Yeh-3dtransitional
Al1Co1Cr1Fe1Ni1C0.3,,C,25,6.785,6.53745356,BCC+Sec.,,867,,137,,7.82,,,Prof.Yeh-3dtransitional
Al1Co1Cr1Fe1Ni1C0.4,,C,25,6.805,6.480590326,BCC+Sec.,,1060,,156,,6.67,,,Prof.Yeh-3dtransitional
Al1Co1Cr1Fe1Ni1C0.5,,C,25,6.835,6.425222712,BCC+Sec.,,1060,,181,,5.6,,,Prof.Yeh-3dtransitional
Al1Co1Cr1Fe1Ni1C1.0,,C,25,6.945,6.16888112,BCC+Sec.,,1250,,75.1,,7.04,,,Prof.Yeh-3dtransitional
Al1Co1Cr1Fe1Ni1C1.5,,C,25,7.045,5.942332936,BCC+Sec.,,1250,,72.5,,5.54,,,Prof.Yeh-3dtransitional
Al1Co1Cr1Fe1Ni1Mo0.1,,C,25,6.805,6.803137068,BCC,,1800,,,187.8028973,9.1,,,Prof.Yeh-3dtransitional
Al1Co1Cr1Fe1Ni1Mo0.2,,C,25,6.885,6.884560868,BCC+Sec.,,2460,,,191.1596208,3.4,,,Prof.Yeh-3dtransitional
Al1Co1Cr1Fe1Ni1Mo0.3,,C,25,6.965,6.962203139,BCC+Sec.,,2650,,,194.3604496,3.3,,,Prof.Yeh-3dtransitional
Al1Co1Cr1Fe1Ni1Mo0.4,,C,25,7.035,7.036321339,BCC+Sec.,,2670,,,197.4159973,3,,,Prof.Yeh-3dtransitional
Al1Co1Cr1Fe1Ni1Mo0.5,,C,25,7.105,7.107150073,BCC+Sec.,,2760,,,200.3359357,2.5,,,Prof.Yeh-3dtransitional
Al1Co1Cr1Fe1Ni1Nb0.1,,C,25,6.775,6.769776572,BCC,569,1640,,,182.0579107,17.2,,,Prof.Yeh-3dtransitional
Al1Co1Cr1Fe1Ni1Nb0.25,,C,25,6.845,6.84271371,BCC+Sec.,668,1960,,,178.9507291,10.5,,,Prof.Yeh-3dtransitional
Al1Co1Cr1Fe1Ni1Nb0.5,,C,25,6.955,6.952027529,BCC+Sec.,747,2470,,,174.2938714,4.1,,,Prof.Yeh-3dtransitional
Al1Co1Cr1Fe1Ni1Si1,,C,25,5.7,5.651384641,BCC,,1110,,,150.9268735,,,https://doi.org/10.1016/j.dib.2018.11.111,Data in Brief 21 (2018) 2664¡V2678
Al1Co1Cr1Fe1Ni1Si1,,C,25,5.7,5.651384641,BCC+Sec.,,2411,2950,,150.9268735,1,,https://doi.org/10.1016/j.dib.2018.11.111,Data in Brief 21 (2018) 2664¡V2678
Al1Co1Cr1Fe1Ni1Si1,,C,25,5.655,5.651384641,BCC,,1110,,,150.9268735,1,,,Prof.Yeh-3dtransitional
Al1Co1Cr1Fe1Ni1Si0.2,,C,25,6.5,6.45294893,BCC,,1265,2173,,175.9990498,14,,https://doi.org/10.1016/j.dib.2018.11.111,Data in Brief 21 (2018) 2664¡V2678
Al1Co1Cr1Fe1Ni1Si0.2,,C,25,6.455,6.45294893,BCC,,1260,,,175.9990498,14,,,Prof.Yeh-3dtransitional
Al1Co1Cr1Fe1Ni1Si0.4,,C,25,6.2,6.218362268,BCC,,1481,2444,,168.6613999,13,,https://doi.org/10.1016/j.dib.2018.11.111,Data in Brief 21 (2018) 2664¡V2678
Al1Co1Cr1Fe1Ni1Si0.4,,C,25,6.215,6.218362268,BCC,,1480,,,168.6613999,13,,,Prof.Yeh-3dtransitional
Al1Co1Cr1Fe1Ni1Si0.6,,C,25,6,6.009026544,BCC,,1834,2195,,162.1135755,3,,https://doi.org/10.1016/j.dib.2018.11.111,Data in Brief 21 (2018) 2664¡V2678
Al1Co1Cr1Fe1Ni1Si0.6,,C,25,6.005,6.009026544,BCC,,1830,,,162.1135755,3,,,Prof.Yeh-3dtransitional
Al1Co1Cr1Fe1Ni1Si0.8,,C,25,5.8,5.821072957,BCC+Sec.,,2179,2664,,156.2345642,2,,https://doi.org/10.1016/j.dib.2018.11.111,Data in Brief 21 (2018) 2664¡V2678
Al1Co1Cr1Fe1Ni1Si0.8,,C,25,5.825,5.821072957,BCC+Sec.,,2180,,,156.2345642,2,,,Prof.Yeh-3dtransitional
Al1Co1Cr1Fe1Ni1Si1.0,,C,25,5.655,5.651384641,BCC+Sec.,,2410,,,150.9268735,1.17,,,Prof.Yeh-3dtransitional
Al1Co1Cr1Fe1Ni1Ti1,,C,25,6.2,6.228043003,BCC,,1860,2580,181,169.2125674,9,,https://doi.org/10.1016/j.dib.2018.11.111,Data in Brief 21 (2018) 2664¡V2678
Al1Co1Cr1Fe1Ni1Ti1,,C,25,6.2,6.228043003,BCC+Sec.,,,2280,,169.2125674,6,,https://doi.org/10.1016/j.dib.2018.11.111,Data in Brief 21 (2018) 2664¡V2678
Al1Co1Cr1Fe1Ni1Ti1,,C,25,6.24,6.228043003,BCC,,1860,,119,169.2125674,9,,,Prof.Yeh-3dtransitional
Al1Co1Cr1Fe1Ni1Ti0.5,,C,25,6.4,6.442487963,FCC,178,2040,3135,187,175.8114219,24,,https://doi.org/10.1016/j.dib.2018.11.111,Data in Brief 21 (2018) 2664¡V2678
Al1Co1Cr1Fe1Ni1Ti0.5,,C,25,6.4,6.442487963,BCC,178,2260,3140,187,175.8114219,23,,https://doi.org/10.1016/j.dib.2018.11.111,Data in Brief 21 (2018) 2664¡V2678
Al1Co1Cr1Fe1Ni1Ti0.5,,C,25,6.45,6.442487963,FCC+BCC,178,2690,,72.6,175.8114219,,,,Prof.Yeh-3dtransitional
Al1Co1Cr1Fe1Ni1Ti1.5,,C,25,6.1,6.056214673,BCC+Sec.,,2220,2720,,163.9251027,5,,https://doi.org/10.1016/j.dib.2018.11.111,Data in Brief 21 (2018) 2664¡V2678
Al1Co1Cr1Fe1Ni1Ti1.5,,C,25,6.08,6.056214673,BCC+Sec.,,2220,,160,163.9251027,5,,,Prof.Yeh-3dtransitional
Al1Co1Cr1Fe1Ni1Ti1V1Zr1,,,25,6.3,6.270999626,Other,780,,,,144.2424887,,,https://doi.org/10.1016/j.dib.2018.11.111,Data in Brief 21 (2018) 2664¡V2678
Al1Co1Cu1Fe1Nb1Ni1,,,25,7.4,7.39087831,Other,578,,,,144.3253262,,,https://doi.org/10.1016/j.dib.2018.11.111,Data in Brief 21 (2018) 2664¡V2678
Al1Co1Cu1Fe1Ni1,,,25,7,7.047494223,FCC+BCC,536,,,,155.6946076,,,https://doi.org/10.1016/j.dib.2018.11.111,Data in Brief 21 (2018) 2664¡V2678
Al1Co1Cu1Fe1Ni1Si1,,,25,5.9,5.898316511,FCC+BCC,682,,,,129.2233441,,,https://doi.org/10.1016/j.dib.2018.11.111,Data in Brief 21 (2018) 2664¡V2678
Al1Co1Cu1Fe1Ni1Ti1,,,25,6.5,6.483703401,FCC+BCC,626,,,,146.9139293,,,https://doi.org/10.1016/j.dib.2018.11.111,Data in Brief 21 (2018) 2664¡V2678